<?xml version="1.0"?>
<VTKFile type="UnstructuredGrid" version="0.1" byte_order="LittleEndian">
  <UnstructuredGrid>
    <Piece NumberOfCells="1000" NumberOfPoints="1071">
      <PointData Scalars="S_liq" Vectors="velocity_liq (m/s)">
        <DataArray type="Float32" Name="S_liq" NumberOfComponents="1" format="ascii">
          0.999712 0.999709 0.999984 0.999985 0.999706 0.999987 0.999703 0.999987 0.9997 0.999989 0.999697 0.999989
          0.999693 0.999991 0.99969 0.999991 0.999687 0.999992 0.999684 0.999993 0.999681 0.999994 0.999678 0.999994
          0.999675 0.999995 0.999672 0.999996 0.99967 0.999997 0.999667 0.999997 0.999665 0.999998 0.999664 0.999998
          0.999662 0.999998 0.999661 0.999998 0.999659 0.999998 0.999657 0.999998 0.999655 0.999999 0.999653 0.999999
          0.999651 0.999999 0.999649 0.999999 0.999647 0.999999 0.999645 0.999999 0.999643 1 0.999641 1
          0.999638 1 0.999636 1 0.999634 1 0.999632 1 0.99963 1 0.999628 1
          0.999626 1 0.999623 1 0.999621 1 0.999619 1 0.999616 1 0.999614 1
          0.999611 1 0.999609 1 0.999606 1 0.999603 1 0.999601 1 0.999598 1
          0.999595 1 0.999592 1 0.999589 1 0.999995 1 0.999995 1 0.999996 1
          0.999998 1 0.999999 1 1 1 1 1 1 1 1 1
          1 1 1 1 1 1 1 1 1 1 1 1
          1 1 1 1 1 1 1 1 1 1 1 1
          1 1 1 1 1 1 1 1 1 0.999999 1 1
          1 1 1 1 1 1 1 1 1 1 1 1
          1 1 1 1 1 1 1 1 1 1 1 1
          1 1 1 1 1 1 1 1 1 1 1 1
          1 1 1 1 1 1 1 1 1 1 1 1
          1 1 1 1 1 1 1 1 1 1 1 1
          1 1 1 1 1 1 1 1 1 1 1 1
          1 1 1 1 1 1 1 1 1 1 1 1
          1 1 1 1 1 1 1 1 1 1 1 1
          1 1 1 1 1 1 1 1 1 1 1 1
          1 1 1 1 1 1 1 1 1 1 1 1
          1 1 1 1 1 1 1 1 1 1 1 1
          1 1 1 1 1 1 1 1 1 1 1 1
          1 1 1 1 1 1 1 1 1 1 1 1
          1 1 1 1 1 1 1 1 1 1 1 1
          1 1 1 1 1 1 1 1 1 1 1 1
          1 1 1 1 1 1 1 1 1 1 1 1
          1 1 1 1 1 1 1 1 1 1 1 1
          1 1 1 1 1 1 1 1 1 1 1 1
          1 1 1 1 1 1 1 1 1 1 1 1
          1 1 1 1 1 1 1 1 1 1 1 1
          1 1 1 1 1 1 1 1 1 1 1 1
          1 1 1 1 1 1 1 1 1 1 1 1
          1 1 1 1 1 1 1 1 1 1 1 1
          1 1 1 1 1 1 1 1 1 1 1 1
          1 1 1 1 1 1 1 1 1 1 1 1
          1 1 1 1 1 1 1 1 1 1 1 1
          1 1 1 1 1 1 1 1 1 1 1 1
          1 1 1 1 1 1 1 1 1 1 1 1
          1 1 1 1 1 1 1 1 1 1 1 1
          1 1 1 1 1 1 1 1 1 1 1 1
          1 1 1 1 1 1 1 1 1 1 1 1
          1 1 1 1 1 1 1 1 1 1 1 1
          1 1 1 1 1 1 1 1 1 1 1 1
          1 1 1 1 1 1 1 1 1 1 1 1
          1 1 1 1 1 1 1 1 1 1 1 1
          1 1 1 1 1 1 1 1 1 1 1 1
          1 1 1 1 1 1 1 1 1 1 1 1
          1 1 1 1 1 1 1 1 1 1 1 1
          1 1 1 1 1 1 1 1 1 1 1 1
          1 1 1 1 1 1 1 1 1 1 1 1
          1 1 1 1 1 1 1 1 1 1 1 1
          1 1 1 1 1 1 1 1 1 1 1 1
          1 1 1 1 1 1 1 1 1 1 1 1
          1 1 1 1 1 1 1 1 1 1 1 1
          1 1 1 1 1 1 1 1 1 1 1 1
          1 1 1 1 1 1 1 1 1 1 1 1
          1 1 1 1 1 1 1 1 1 1 1 1
          1 1 1 1 1 1 1 1 1 1 1 1
          1 1 1 1 1 1 1 1 1 1 1 1
          1 1 1 1 1 1 1 1 1 1 1 1
          1 1 1 1 1 1 1 1 1 1 1 1
          1 1 1 1 1 1 1 1 1 1 1 1
          1 1 1 1 1 1 1 1 1 1 1 1
          1 1 1 1 1 1 1 1 1 1 1 1
          1 1 1 1 1 1 1 1 1 1 1 1
          1 1 1 1 1 1 1 1 1 1 1 1
          1 1 1 1 1 1 1 1 1 1 1 1
          1 1 1 1 1 1 1 1 1 1 1 1
          1 1 1 1 1 1 1 1 1 1 1 1
          1 1 1 1 1 1 1 1 1 1 1 1
          1 1 1 1 1 1 1 1 1 1 1 1
          1 1 1 1 1 1 1 1 1 1 1 1
          1 1 1 1 1 1 1 1 1 1 1 1
          1 1 1 1 1 1 1 1 1 1 1 1
          1 1 1 1 1 1 1 1 1 1 1 1
          1 1 1 1 1 1 1 1 1 1 1 1
          1 1 1 1 1 1 1 1 1 1 1 1
          1 1 1 1 1 1 1 1 1 1 1 1
          1 1 1 1 1 1 1 1 1 1 1 1
          1 1 1 1 1 1 1 1 1 1 1 1
          1 1 1 1 1 1 1 1 1 1 1 1
          1 1 1 1 1 1 1 1 1 1 1 1
          1 1 1 1 1 1 1 1 1 1 1 1
          1 1 1 1 1 1 1 1 1 1 1 1
          1 1 1 1 1 1 1 1 1 1 1 1
          1 1 1 1 1 1 1 1 1 1 1 1
          1 1 1
        </DataArray>
        <DataArray type="Float32" Name="p_liq" NumberOfComponents="1" format="ascii">
          2.09378e+07 2.0933e+07 2.09084e+07 2.09035e+07 2.09281e+07 2.08987e+07 2.09233e+07 2.08939e+07 2.09186e+07 2.08891e+07 2.09138e+07 2.08844e+07
          2.09091e+07 2.08797e+07 2.09045e+07 2.08751e+07 2.08999e+07 2.08704e+07 2.08953e+07 2.08659e+07 2.08907e+07 2.08613e+07 2.08862e+07 2.08568e+07
          2.08817e+07 2.08523e+07 2.08773e+07 2.08479e+07 2.08729e+07 2.08435e+07 2.08685e+07 2.08391e+07 2.08642e+07 2.08347e+07 2.08599e+07 2.08304e+07
          2.08556e+07 2.08262e+07 2.08514e+07 2.08219e+07 2.08471e+07 2.08177e+07 2.0843e+07 2.08135e+07 2.08388e+07 2.08094e+07 2.08347e+07 2.08053e+07
          2.08306e+07 2.08012e+07 2.08266e+07 2.07972e+07 2.08226e+07 2.07931e+07 2.08186e+07 2.07892e+07 2.08146e+07 2.07852e+07 2.08107e+07 2.07813e+07
          2.08068e+07 2.07774e+07 2.08029e+07 2.07735e+07 2.07991e+07 2.07697e+07 2.07953e+07 2.07658e+07 2.07915e+07 2.07621e+07 2.07877e+07 2.07583e+07
          2.0784e+07 2.07546e+07 2.07803e+07 2.07509e+07 2.07766e+07 2.07472e+07 2.0773e+07 2.07435e+07 2.07693e+07 2.07399e+07 2.07657e+07 2.07363e+07
          2.07621e+07 2.07327e+07 2.07586e+07 2.07292e+07 2.07551e+07 2.07256e+07 2.07516e+07 2.07221e+07 2.07481e+07 2.07186e+07 2.07446e+07 2.07152e+07
          2.07412e+07 2.07118e+07 2.07378e+07 2.07083e+07 2.07344e+07 2.0705e+07 2.08791e+07 2.08742e+07 2.08693e+07 2.08645e+07 2.08598e+07 2.0855e+07
          2.08503e+07 2.08457e+07 2.0841e+07 2.08365e+07 2.08319e+07 2.08274e+07 2.08229e+07 2.08185e+07 2.08141e+07 2.08097e+07 2.08053e+07 2.0801e+07
          2.07968e+07 2.07925e+07 2.07883e+07 2.07841e+07 2.078e+07 2.07759e+07 2.07718e+07 2.07677e+07 2.07637e+07 2.07597e+07 2.07558e+07 2.07518e+07
          2.07479e+07 2.07441e+07 2.07402e+07 2.07364e+07 2.07326e+07 2.07289e+07 2.07251e+07 2.07214e+07 2.07177e+07 2.07141e+07 2.07105e+07 2.07069e+07
          2.07033e+07 2.06997e+07 2.06962e+07 2.06927e+07 2.06892e+07 2.06858e+07 2.06823e+07 2.06789e+07 2.06755e+07 2.08497e+07 2.08448e+07 2.084e+07
          2.08352e+07 2.08304e+07 2.08257e+07 2.0821e+07 2.08163e+07 2.08117e+07 2.08071e+07 2.08025e+07 2.0798e+07 2.07935e+07 2.07891e+07 2.07847e+07
          2.07803e+07 2.07759e+07 2.07716e+07 2.07673e+07 2.07631e+07 2.07589e+07 2.07547e+07 2.07506e+07 2.07465e+07 2.07424e+07 2.07383e+07 2.07343e+07
          2.07303e+07 2.07264e+07 2.07224e+07 2.07185e+07 2.07146e+07 2.07108e+07 2.0707e+07 2.07032e+07 2.06994e+07 2.06957e+07 2.0692e+07 2.06883e+07
          2.06847e+07 2.0681e+07 2.06774e+07 2.06739e+07 2.06703e+07 2.06668e+07 2.06633e+07 2.06598e+07 2.06563e+07 2.06529e+07 2.06495e+07 2.06461e+07
          2.08205e+07 2.08156e+07 2.08107e+07 2.08059e+07 2.08011e+07 2.07963e+07 2.07916e+07 2.0787e+07 2.07823e+07 2.07777e+07 2.07732e+07 2.07686e+07
          2.07642e+07 2.07597e+07 2.07553e+07 2.07509e+07 2.07465e+07 2.07422e+07 2.0738e+07 2.07337e+07 2.07295e+07 2.07253e+07 2.07212e+07 2.0717e+07
          2.0713e+07 2.07089e+07 2.07049e+07 2.07009e+07 2.06969e+07 2.0693e+07 2.06891e+07 2.06852e+07 2.06814e+07 2.06776e+07 2.06738e+07 2.067e+07
          2.06663e+07 2.06626e+07 2.06589e+07 2.06552e+07 2.06516e+07 2.0648e+07 2.06444e+07 2.06409e+07 2.06373e+07 2.06338e+07 2.06304e+07 2.06269e+07
          2.06235e+07 2.06201e+07 2.06167e+07 2.07912e+07 2.07863e+07 2.07814e+07 2.07766e+07 2.07718e+07 2.0767e+07 2.07623e+07 2.07576e+07 2.0753e+07
          2.07484e+07 2.07438e+07 2.07393e+07 2.07348e+07 2.07303e+07 2.07259e+07 2.07215e+07 2.07172e+07 2.07129e+07 2.07086e+07 2.07043e+07 2.07001e+07
          2.06959e+07 2.06918e+07 2.06876e+07 2.06836e+07 2.06795e+07 2.06755e+07 2.06715e+07 2.06675e+07 2.06636e+07 2.06597e+07 2.06558e+07 2.0652e+07
          2.06481e+07 2.06444e+07 2.06406e+07 2.06369e+07 2.06332e+07 2.06295e+07 2.06258e+07 2.06222e+07 2.06186e+07 2.0615e+07 2.06114e+07 2.06079e+07
          2.06044e+07 2.06009e+07 2.05975e+07 2.0594e+07 2.05906e+07 2.05872e+07 2.0762e+07 2.07571e+07 2.07522e+07 2.07474e+07 2.07425e+07 2.07378e+07
          2.0733e+07 2.07283e+07 2.07237e+07 2.07191e+07 2.07145e+07 2.071e+07 2.07055e+07 2.0701e+07 2.06966e+07 2.06922e+07 2.06878e+07 2.06835e+07
          2.06792e+07 2.06749e+07 2.06707e+07 2.06665e+07 2.06624e+07 2.06583e+07 2.06542e+07 2.06501e+07 2.06461e+07 2.06421e+07 2.06381e+07 2.06342e+07
          2.06303e+07 2.06264e+07 2.06226e+07 2.06187e+07 2.06149e+07 2.06112e+07 2.06074e+07 2.06037e+07 2.06e+07 2.05964e+07 2.05928e+07 2.05892e+07
          2.05856e+07 2.0582e+07 2.05785e+07 2.0575e+07 2.05715e+07 2.0568e+07 2.05646e+07 2.05612e+07 2.05578e+07 2.07329e+07 2.07279e+07 2.0723e+07
          2.07181e+07 2.07133e+07 2.07085e+07 2.07038e+07 2.06991e+07 2.06944e+07 2.06898e+07 2.06852e+07 2.06806e+07 2.06761e+07 2.06716e+07 2.06672e+07
          2.06628e+07 2.06584e+07 2.06541e+07 2.06498e+07 2.06456e+07 2.06413e+07 2.06371e+07 2.0633e+07 2.06289e+07 2.06248e+07 2.06207e+07 2.06167e+07
          2.06127e+07 2.06087e+07 2.06048e+07 2.06009e+07 2.0597e+07 2.05931e+07 2.05893e+07 2.05855e+07 2.05818e+07 2.0578e+07 2.05743e+07 2.05706e+07
          2.0567e+07 2.05633e+07 2.05597e+07 2.05562e+07 2.05526e+07 2.05491e+07 2.05456e+07 2.05421e+07 2.05386e+07 2.05352e+07 2.05318e+07 2.05284e+07
          2.07037e+07 2.06988e+07 2.06938e+07 2.06889e+07 2.06841e+07 2.06793e+07 2.06745e+07 2.06698e+07 2.06651e+07 2.06605e+07 2.06559e+07 2.06513e+07
          2.06468e+07 2.06423e+07 2.06379e+07 2.06335e+07 2.06291e+07 2.06248e+07 2.06205e+07 2.06162e+07 2.0612e+07 2.06078e+07 2.06036e+07 2.05995e+07
          2.05954e+07 2.05913e+07 2.05873e+07 2.05833e+07 2.05793e+07 2.05754e+07 2.05715e+07 2.05676e+07 2.05637e+07 2.05599e+07 2.05561e+07 2.05523e+07
          2.05486e+07 2.05449e+07 2.05412e+07 2.05376e+07 2.05339e+07 2.05303e+07 2.05267e+07 2.05232e+07 2.05196e+07 2.05161e+07 2.05127e+07 2.05092e+07
[...]
      <CellData Scalars="process rank">
        <DataArray type="Float32" Name="process rank" NumberOfComponents="1" format="ascii">
          2 2 2 2 2 2 2 2 2 2 2 2
          2 2 2 2 2 2 2 2 2 2 2 2
          2 2 2 2 2 2 2 2 2 2 2 2
          2 2 2 2 2 2 2 2 2 2 2 2
          2 2 2 2 2 2 2 2 2 2 2 2
          2 2 2 2 2 2 2 2 2 2 2 2
          2 2 2 2 2 2 2 2 2 2 2 2
          2 2 2 2 2 2 2 2 2 2 2 2
          2 2 2 2 2 2 2 2 2 2 2 2
          2 2 2 2 2 2 2 2 2 2 2 2
          2 2 2 2 2 2 2 2 2 2 2 2
          2 2 2 2 2 2 2 2 2 2 2 2
          2 2 2 2 2 2 2 2 2 2 2 2
          2 2 2 2 2 2 2 2 2 2 2 2
          2 2 2 2 2 2 2 2 2 2 2 2
          2 2 2 2 2 2 2 2 2 2 2 2
          2 2 2 2 2 2 2 2 2 2 2 2
          2 2 2 2 2 2 2 2 2 2 2 2
          2 2 2 2 2 2 2 2 2 2 2 2
          2 2 2 2 2 2 2 2 2 2 2 2
          2 2 2 2 2 2 2 2 2 2 2 2
          2 2 2 2 2 2 2 2 2 2 2 2
          2 2 2 2 2 2 2 2 2 2 2 2
          2 2 2 2 2 2 2 2 2 2 2 2
          2 2 2 2 2 2 2 2 2 2 2 2
          2 2 2 2 2 2 2 2 2 2 2 2
          2 2 2 2 2 2 2 2 2 2 2 2
          2 2 2 2 2 2 2 2 2 2 2 2
          2 2 2 2 2 2 2 2 2 2 2 2
          2 2 2 2 2 2 2 2 2 2 2 2
          2 2 2 2 2 2 2 2 2 2 2 2
          2 2 2 2 2 2 2 2 2 2 2 2
          2 2 2 2 2 2 2 2 2 2 2 2
          2 2 2 2 2 2 2 2 2 2 2 2
          2 2 2 2 2 2 2 2 2 2 2 2
          2 2 2 2 2 2 2 2 2 2 2 2
          2 2 2 2 2 2 2 2 2 2 2 2
          2 2 2 2 2 2 2 2 2 2 2 2
          2 2 2 2 2 2 2 2 2 2 2 2
          2 2 2 2 2 2 2 2 2 2 2 2
          2 2 2 2 2 2 2 2 2 2 2 2
          2 2 2 2 2 2 2 2 2 2 2 2
          2 2 2 2 2 2 2 2 2 2 2 2
          2 2 2 2 2 2 2 2 2 2 2 2
          2 2 2 2 2 2 2 2 2 2 2 2
          2 2 2 2 2 2 2 2 2 2 2 2
          2 2 2 2 2 2 2 2 2 2 2 2
          2 2 2 2 2 2 2 2 2 2 2 2
          2 2 2 2 2 2 2 2 2 2 2 2
          2 2 2 2 2 2 2 2 2 2 2 2
          2 2 2 2 2 2 2 2 2 2 2 2
          2 2 2 2 2 2 2 2 2 2 2 2
          2 2 2 2 2 2 2 2 2 2 2 2
          2 2 2 2 2 2 2 2 2 2 2 2
          2 2 2 2 2 2 2 2 2 2 2 2
          2 2 2 2 2 2 2 2 2 2 2 2
          2 2 2 2 2 2 2 2 2 2 2 2
          2 2 2 2 2 2 2 2 2 2 2 2
          2 2 2 2 2 2 2 2 2 2 2 2
          2 2 2 2 2 2 2 2 2 2 2 2
          2 2 2 2 2 2 2 2 2 2 2 2
          2 2 2 2 2 2 2 2 2 2 2 2
          2 2 2 2 2 2 2 2 2 2 2 2
          2 2 2 2 2 2 2 2 2 2 2 2
          2 2 2 2 2 2 2 2 2 2 2 2
          2 2 2 2 2 2 2 2 2 2 2 2
          2 2 2 2 2 2 2 2 2 2 2 2
          2 2 2 2 2 2 2 2 2 2 2 2
          2 2 2 2 2 2 2 2 2 2 2 2
          2 2 2 2 2 2 2 2 2 2 2 2
          2 2 2 2 2 2 2 2 2 2 2 2
          2 2 2 2 2 2 2 2 2 2 2 2
          2 2 2 2 2 2 2 2 2 2 2 2
          2 2 2 2 2 2 2 2 2 2 2 2
          2 2 2 2 2 2 2 2 2 2 2 2
          2 2 2 2 2 2 2 2 2 2 2 2
          2 2 2 2 2 2 2 2 2 2 2 2
          2 2 2 2 2 2 2 2 2 2 2 2
          2 2 2 2 2 2 2 2 2 2 2 2
          2 2 2 2 2 2 2 2 2 2 2 2
          2 2 2 2 2 2 2 2 2 2 2 2
          2 2 2 2 2 2 2 2 2 2 2 2
          2 2 2 2 2 2 2 2 2 2 2 2
          2 2 2 2
        </DataArray>
      </CellData>
      <Points>
        <DataArray type="Float32" Name="Coordinates" NumberOfComponents="3" format="ascii">
          500.2 0 0 505.2 0 0 500.2 3 0 505.2 3 0
          510.2 0 0 510.2 3 0 515.2 0 0 515.2 3 0
          520.2 0 0 520.2 3 0 525.2 0 0 525.2 3 0
          530.2 0 0 530.2 3 0 535.2 0 0 535.2 3 0
          540.2 0 0 540.2 3 0 545.2 0 0 545.2 3 0
          550.2 0 0 550.2 3 0 555.2 0 0 555.2 3 0
          560.2 0 0 560.2 3 0 565.2 0 0 565.2 3 0
          570.2 0 0 570.2 3 0 575.2 0 0 575.2 3 0
          580.2 0 0 580.2 3 0 585.2 0 0 585.2 3 0
          590.2 0 0 590.2 3 0 595.2 0 0 595.2 3 0
          600.2 0 0 600.2 3 0 605.2 0 0 605.2 3 0
          610.2 0 0 610.2 3 0 615.2 0 0 615.2 3 0
          620.2 0 0 620.2 3 0 625.2 0 0 625.2 3 0
          630.2 0 0 630.2 3 0 635.2 0 0 635.2 3 0
          640.2 0 0 640.2 3 0 645.2 0 0 645.2 3 0
          650.2 0 0 650.2 3 0 655.2 0 0 655.2 3 0
          660.2 0 0 660.2 3 0 665.2 0 0 665.2 3 0
          670.2 0 0 670.2 3 0 675.2 0 0 675.2 3 0
          680.2 0 0 680.2 3 0 685.2 0 0 685.2 3 0
          690.2 0 0 690.2 3 0 695.2 0 0 695.2 3 0
          700.2 0 0 700.2 3 0 705.2 0 0 705.2 3 0
          710.2 0 0 710.2 3 0 715.2 0 0 715.2 3 0
          720.2 0 0 720.2 3 0 725.2 0 0 725.2 3 0
          730.2 0 0 730.2 3 0 735.2 0 0 735.2 3 0
          740.2 0 0 740.2 3 0 745.2 0 0 745.2 3 0
          750.2 0 0 750.2 3 0 500.2 6 0 505.2 6 0
          510.2 6 0 515.2 6 0 520.2 6 0 525.2 6 0
          530.2 6 0 535.2 6 0 540.2 6 0 545.2 6 0
          550.2 6 0 555.2 6 0 560.2 6 0 565.2 6 0
          570.2 6 0 575.2 6 0 580.2 6 0 585.2 6 0
          590.2 6 0 595.2 6 0 600.2 6 0 605.2 6 0
          610.2 6 0 615.2 6 0 620.2 6 0 625.2 6 0
          630.2 6 0 635.2 6 0 640.2 6 0 645.2 6 0
          650.2 6 0 655.2 6 0 660.2 6 0 665.2 6 0
          670.2 6 0 675.2 6 0 680.2 6 0 685.2 6 0
          690.2 6 0 695.2 6 0 700.2 6 0 705.2 6 0
          710.2 6 0 715.2 6 0 720.2 6 0 725.2 6 0
          730.2 6 0 735.2 6 0 740.2 6 0 745.2 6 0
          750.2 6 0 500.2 9 0 505.2 9 0 510.2 9 0
          515.2 9 0 520.2 9 0 525.2 9 0 530.2 9 0
          535.2 9 0 540.2 9 0 545.2 9 0 550.2 9 0
          555.2 9 0 560.2 9 0 565.2 9 0 570.2 9 0
          575.2 9 0 580.2 9 0 585.2 9 0 590.2 9 0
          595.2 9 0 600.2 9 0 605.2 9 0 610.2 9 0
          615.2 9 0 620.2 9 0 625.2 9 0 630.2 9 0
          635.2 9 0 640.2 9 0 645.2 9 0 650.2 9 0
          655.2 9 0 660.2 9 0 665.2 9 0 670.2 9 0
          675.2 9 0 680.2 9 0 685.2 9 0 690.2 9 0
          695.2 9 0 700.2 9 0 705.2 9 0 710.2 9 0
          715.2 9 0 720.2 9 0 725.2 9 0 730.2 9 0
          735.2 9 0 740.2 9 0 745.2 9 0 750.2 9 0
          500.2 12 0 505.2 12 0 510.2 12 0 515.2 12 0
          520.2 12 0 525.2 12 0 530.2 12 0 535.2 12 0
          540.2 12 0 545.2 12 0 550.2 12 0 555.2 12 0
          560.2 12 0 565.2 12 0 570.2 12 0 575.2 12 0
          580.2 12 0 585.2 12 0 590.2 12 0 595.2 12 0
          600.2 12 0 605.2 12 0 610.2 12 0 615.2 12 0
          620.2 12 0 625.2 12 0 630.2 12 0 635.2 12 0
          640.2 12 0 645.2 12 0 650.2 12 0 655.2 12 0
          660.2 12 0 665.2 12 0 670.2 12 0 675.2 12 0
          680.2 12 0 685.2 12 0 690.2 12 0 695.2 12 0
          700.2 12 0 705.2 12 0 710.2 12 0 715.2 12 0
          720.2 12 0 725.2 12 0 730.2 12 0 735.2 12 0
          740.2 12 0 745.2 12 0 750.2 12 0 500.2 15 0
          505.2 15 0 510.2 15 0 515.2 15 0 520.2 15 0
          525.2 15 0 530.2 15 0 535.2 15 0 540.2 15 0
          545.2 15 0 550.2 15 0 555.2 15 0 560.2 15 0
          565.2 15 0 570.2 15 0 575.2 15 0 580.2 15 0
          585.2 15 0 590.2 15 0 595.2 15 0 600.2 15 0
          605.2 15 0 610.2 15 0 615.2 15 0 620.2 15 0
          625.2 15 0 630.2 15 0 635.2 15 0 640.2 15 0
          645.2 15 0 650.2 15 0 655.2 15 0 660.2 15 0
          665.2 15 0 670.2 15 0 675.2 15 0 680.2 15 0
          685.2 15 0 690.2 15 0 695.2 15 0 700.2 15 0
          705.2 15 0 710.2 15 0 715.2 15 0 720.2 15 0
          725.2 15 0 730.2 15 0 735.2 15 0 740.2 15 0
          745.2 15 0 750.2 15 0 500.2 18 0 505.2 18 0
          510.2 18 0 515.2 18 0 520.2 18 0 525.2 18 0
          530.2 18 0 535.2 18 0 540.2 18 0 545.2 18 0
          550.2 18 0 555.2 18 0 560.2 18 0 565.2 18 0
          570.2 18 0 575.2 18 0 580.2 18 0 585.2 18 0
          590.2 18 0 595.2 18 0 600.2 18 0 605.2 18 0
          610.2 18 0 615.2 18 0 620.2 18 0 625.2 18 0
          630.2 18 0 635.2 18 0 640.2 18 0 645.2 18 0
          650.2 18 0 655.2 18 0 660.2 18 0 665.2 18 0
          670.2 18 0 675.2 18 0 680.2 18 0 685.2 18 0
          690.2 18 0 695.2 18 0 700.2 18 0 705.2 18 0
          710.2 18 0 715.2 18 0 720.2 18 0 725.2 18 0
          730.2 18 0 735.2 18 0 740.2 18 0 745.2 18 0
          750.2 18 0 500.2 21 0 505.2 21 0 510.2 21 0
          515.2 21 0 520.2 21 0 525.2 21 0 530.2 21 0
          535.2 21 0 540.2 21 0 545.2 21 0 550.2 21 0
          555.2 21 0 560.2 21 0 565.2 21 0 570.2 21 0
          575.2 21 0 580.2 21 0 585.2 21 0 590.2 21 0
          595.2 21 0 600.2 21 0 605.2 21 0 610.2 21 0
          615.2 21 0 620.2 21 0 625.2 21 0 630.2 21 0
          635.2 21 0 640.2 21 0 645.2 21 0 650.2 21 0
          655.2 21 0 660.2 21 0 665.2 21 0 670.2 21 0
          675.2 21 0 680.2 21 0 685.2 21 0 690.2 21 0
          695.2 21 0 700.2 21 0 705.2 21 0 710.2 21 0
          715.2 21 0 720.2 21 0 725.2 21 0 730.2 21 0
          735.2 21 0 740.2 21 0 745.2 21 0 750.2 21 0
          500.2 24 0 505.2 24 0 510.2 24 0 515.2 24 0
          520.2 24 0 525.2 24 0 530.2 24 0 535.2 24 0
          540.2 24 0 545.2 24 0 550.2 24 0 555.2 24 0
          560.2 24 0 565.2 24 0 570.2 24 0 575.2 24 0
          580.2 24 0 585.2 24 0 590.2 24 0 595.2 24 0
          600.2 24 0 605.2 24 0 610.2 24 0 615.2 24 0
          620.2 24 0 625.2 24 0 630.2 24 0 635.2 24 0
          640.2 24 0 645.2 24 0 650.2 24 0 655.2 24 0
          660.2 24 0 665.2 24 0 670.2 24 0 675.2 24 0
          680.2 24 0 685.2 24 0 690.2 24 0 695.2 24 0
          700.2 24 0 705.2 24 0 710.2 24 0 715.2 24 0
          720.2 24 0 725.2 24 0 730.2 24 0 735.2 24 0
          740.2 24 0 745.2 24 0 750.2 24 0 500.2 27 0
          505.2 27 0 510.2 27 0 515.2 27 0 520.2 27 0
          525.2 27 0 530.2 27 0 535.2 27 0 540.2 27 0
          545.2 27 0 550.2 27 0 555.2 27 0 560.2 27 0
          565.2 27 0 570.2 27 0 575.2 27 0 580.2 27 0
          585.2 27 0 590.2 27 0 595.2 27 0 600.2 27 0
          605.2 27 0 610.2 27 0 615.2 27 0 620.2 27 0
          625.2 27 0 630.2 27 0 635.2 27 0 640.2 27 0
          645.2 27 0 650.2 27 0 655.2 27 0 660.2 27 0
          665.2 27 0 670.2 27 0 675.2 27 0 680.2 27 0
          685.2 27 0 690.2 27 0 695.2 27 0 700.2 27 0
          705.2 27 0 710.2 27 0 715.2 27 0 720.2 27 0
          725.2 27 0 730.2 27 0 735.2 27 0 740.2 27 0
          745.2 27 0 750.2 27 0 500.2 30 0 505.2 30 0
          510.2 30 0 515.2 30 0 520.2 30 0 525.2 30 0
          530.2 30 0 535.2 30 0 540.2 30 0 545.2 30 0
          550.2 30 0 555.2 30 0 560.2 30 0 565.2 30 0
          570.2 30 0 575.2 30 0 580.2 30 0 585.2 30 0
          590.2 30 0 595.2 30 0 600.2 30 0 605.2 30 0
          610.2 30 0 615.2 30 0 620.2 30 0 625.2 30 0
          630.2 30 0 635.2 30 0 640.2 30 0 645.2 30 0
          650.2 30 0 655.2 30 0 660.2 30 0 665.2 30 0
          670.2 30 0 675.2 30 0 680.2 30 0 685.2 30 0
          690.2 30 0 695.2 30 0 700.2 30 0 705.2 30 0
          710.2 30 0 715.2 30 0 720.2 30 0 725.2 30 0
          730.2 30 0 735.2 30 0 740.2 30 0 745.2 30 0
          750.2 30 0 500.2 33 0 505.2 33 0 510.2 33 0
          515.2 33 0 520.2 33 0 525.2 33 0 530.2 33 0
          535.2 33 0 540.2 33 0 545.2 33 0 550.2 33 0
          555.2 33 0 560.2 33 0 565.2 33 0 570.2 33 0
          575.2 33 0 580.2 33 0 585.2 33 0 590.2 33 0
          595.2 33 0 600.2 33 0 605.2 33 0 610.2 33 0
          615.2 33 0 620.2 33 0 625.2 33 0 630.2 33 0
          635.2 33 0 640.2 33 0 645.2 33 0 650.2 33 0
          655.2 33 0 660.2 33 0 665.2 33 0 670.2 33 0
          675.2 33 0 680.2 33 0 685.2 33 0 690.2 33 0
          695.2 33 0 700.2 33 0 705.2 33 0 710.2 33 0
          715.2 33 0 720.2 33 0 725.2 33 0 730.2 33 0
          735.2 33 0 740.2 33 0 745.2 33 0 750.2 33 0
          500.2 36 0 505.2 36 0 510.2 36 0 515.2 36 0
          520.2 36 0 525.2 36 0 530.2 36 0 535.2 36 0
          540.2 36 0 545.2 36 0 550.2 36 0 555.2 36 0
          560.2 36 0 565.2 36 0 570.2 36 0 575.2 36 0
          580.2 36 0 585.2 36 0 590.2 36 0 595.2 36 0
          600.2 36 0 605.2 36 0 610.2 36 0 615.2 36 0
          620.2 36 0 625.2 36 0 630.2 36 0 635.2 36 0
          640.2 36 0 645.2 36 0 650.2 36 0 655.2 36 0
          660.2 36 0 665.2 36 0 670.2 36 0 675.2 36 0
          680.2 36 0 685.2 36 0 690.2 36 0 695.2 36 0
          700.2 36 0 705.2 36 0 710.2 36 0 715.2 36 0
          720.2 36 0 725.2 36 0 730.2 36 0 735.2 36 0
          740.2 36 0 745.2 36 0 750.2 36 0 500.2 39 0
          505.2 39 0 510.2 39 0 515.2 39 0 520.2 39 0
          525.2 39 0 530.2 39 0 535.2 39 0 540.2 39 0
          545.2 39 0 550.2 39 0 555.2 39 0 560.2 39 0
          565.2 39 0 570.2 39 0 575.2 39 0 580.2 39 0
          585.2 39 0 590.2 39 0 595.2 39 0 600.2 39 0
          605.2 39 0 610.2 39 0 615.2 39 0 620.2 39 0
          625.2 39 0 630.2 39 0 635.2 39 0 640.2 39 0
          645.2 39 0 650.2 39 0 655.2 39 0 660.2 39 0
          665.2 39 0 670.2 39 0 675.2 39 0 680.2 39 0
          685.2 39 0 690.2 39 0 695.2 39 0 700.2 39 0
          705.2 39 0 710.2 39 0 715.2 39 0 720.2 39 0
          725.2 39 0 730.2 39 0 735.2 39 0 740.2 39 0
          745.2 39 0 750.2 39 0 500.2 42 0 505.2 42 0
          510.2 42 0 515.2 42 0 520.2 42 0 525.2 42 0
          530.2 42 0 535.2 42 0 540.2 42 0 545.2 42 0
          550.2 42 0 555.2 42 0 560.2 42 0 565.2 42 0
          570.2 42 0 575.2 42 0 580.2 42 0 585.2 42 0
          590.2 42 0 595.2 42 0 600.2 42 0 605.2 42 0
          610.2 42 0 615.2 42 0 620.2 42 0 625.2 42 0
          630.2 42 0 635.2 42 0 640.2 42 0 645.2 42 0
          650.2 42 0 655.2 42 0 660.2 42 0 665.2 42 0
          670.2 42 0 675.2 42 0 680.2 42 0 685.2 42 0
          690.2 42 0 695.2 42 0 700.2 42 0 705.2 42 0
          710.2 42 0 715.2 42 0 720.2 42 0 725.2 42 0
          730.2 42 0 735.2 42 0 740.2 42 0 745.2 42 0
          750.2 42 0 500.2 45 0 505.2 45 0 510.2 45 0
          515.2 45 0 520.2 45 0 525.2 45 0 530.2 45 0
          535.2 45 0 540.2 45 0 545.2 45 0 550.2 45 0
          555.2 45 0 560.2 45 0 565.2 45 0 570.2 45 0
          575.2 45 0 580.2 45 0 585.2 45 0 590.2 45 0
          595.2 45 0 600.2 45 0 605.2 45 0 610.2 45 0
          615.2 45 0 620.2 45 0 625.2 45 0 630.2 45 0
          635.2 45 0 640.2 45 0 645.2 45 0 650.2 45 0
          655.2 45 0 660.2 45 0 665.2 45 0 670.2 45 0
          675.2 45 0 680.2 45 0 685.2 45 0 690.2 45 0
          695.2 45 0 700.2 45 0 705.2 45 0 710.2 45 0
          715.2 45 0 720.2 45 0 725.2 45 0 730.2 45 0
          735.2 45 0 740.2 45 0 745.2 45 0 750.2 45 0
          500.2 48 0 505.2 48 0 510.2 48 0 515.2 48 0
          520.2 48 0 525.2 48 0 530.2 48 0 535.2 48 0
          540.2 48 0 545.2 48 0 550.2 48 0 555.2 48 0
          560.2 48 0 565.2 48 0 570.2 48 0 575.2 48 0
          580.2 48 0 585.2 48 0 590.2 48 0 595.2 48 0
          600.2 48 0 605.2 48 0 610.2 48 0 615.2 48 0
          620.2 48 0 625.2 48 0 630.2 48 0 635.2 48 0
          640.2 48 0 645.2 48 0 650.2 48 0 655.2 48 0
          660.2 48 0 665.2 48 0 670.2 48 0 675.2 48 0
          680.2 48 0 685.2 48 0 690.2 48 0 695.2 48 0
          700.2 48 0 705.2 48 0 710.2 48 0 715.2 48 0
          720.2 48 0 725.2 48 0 730.2 48 0 735.2 48 0
          740.2 48 0 745.2 48 0 750.2 48 0 500.2 51 0
          505.2 51 0 510.2 51 0 515.2 51 0 520.2 51 0
          525.2 51 0 530.2 51 0 535.2 51 0 540.2 51 0
          545.2 51 0 550.2 51 0 555.2 51 0 560.2 51 0
          565.2 51 0 570.2 51 0 575.2 51 0 580.2 51 0
          585.2 51 0 590.2 51 0 595.2 51 0 600.2 51 0
          605.2 51 0 610.2 51 0 615.2 51 0 620.2 51 0
          625.2 51 0 630.2 51 0 635.2 51 0 640.2 51 0
          645.2 51 0 650.2 51 0 655.2 51 0 660.2 51 0
          665.2 51 0 670.2 51 0 675.2 51 0 680.2 51 0
          685.2 51 0 690.2 51 0 695.2 51 0 700.2 51 0
          705.2 51 0 710.2 51 0 715.2 51 0 720.2 51 0
          725.2 51 0 730.2 51 0 735.2 51 0 740.2 51 0
          745.2 51 0 750.2 51 0 500.2 54 0 505.2 54 0
          510.2 54 0 515.2 54 0 520.2 54 0 525.2 54 0
          530.2 54 0 535.2 54 0 540.2 54 0 545.2 54 0
          550.2 54 0 555.2 54 0 560.2 54 0 565.2 54 0
          570.2 54 0 575.2 54 0 580.2 54 0 585.2 54 0
          590.2 54 0 595.2 54 0 600.2 54 0 605.2 54 0
          610.2 54 0 615.2 54 0 620.2 54 0 625.2 54 0
          630.2 54 0 635.2 54 0 640.2 54 0 645.2 54 0
          650.2 54 0 655.2 54 0 660.2 54 0 665.2 54 0
          670.2 54 0 675.2 54 0 680.2 54 0 685.2 54 0
          690.2 54 0 695.2 54 0 700.2 54 0 705.2 54 0
          710.2 54 0 715.2 54 0 720.2 54 0 725.2 54 0
          730.2 54 0 735.2 54 0 740.2 54 0 745.2 54 0
          750.2 54 0 500.2 57 0 505.2 57 0 510.2 57 0
          515.2 57 0 520.2 57 0 525.2 57 0 530.2 57 0
          535.2 57 0 540.2 57 0 545.2 57 0 550.2 57 0
          555.2 57 0 560.2 57 0 565.2 57 0 570.2 57 0
          575.2 57 0 580.2 57 0 585.2 57 0 590.2 57 0
          595.2 57 0 600.2 57 0 605.2 57 0 610.2 57 0
          615.2 57 0 620.2 57 0 625.2 57 0 630.2 57 0
          635.2 57 0 640.2 57 0 645.2 57 0 650.2 57 0
          655.2 57 0 660.2 57 0 665.2 57 0 670.2 57 0
          675.2 57 0 680.2 57 0 685.2 57 0 690.2 57 0
          695.2 57 0 700.2 57 0 705.2 57 0 710.2 57 0
          715.2 57 0 720.2 57 0 725.2 57 0 730.2 57 0
          735.2 57 0 740.2 57 0 745.2 57 0 750.2 57 0
          500.2 60 0 505.2 60 0 510.2 60 0 515.2 60 0
          520.2 60 0 525.2 60 0 530.2 60 0 535.2 60 0
          540.2 60 0 545.2 60 0 550.2 60 0 555.2 60 0
          560.2 60 0 565.2 60 0 570.2 60 0 575.2 60 0
          580.2 60 0 585.2 60 0 590.2 60 0 595.2 60 0
          600.2 60 0 605.2 60 0 610.2 60 0 615.2 60 0
          620.2 60 0 625.2 60 0 630.2 60 0 635.2 60 0
          640.2 60 0 645.2 60 0 650.2 60 0 655.2 60 0
          660.2 60 0 665.2 60 0 670.2 60 0 675.2 60 0
          680.2 60 0 685.2 60 0 690.2 60 0 695.2 60 0
          700.2 60 0 705.2 60 0 710.2 60 0 715.2 60 0
          720.2 60 0 725.2 60 0 730.2 60 0 735.2 60 0
          740.2 60 0 745.2 60 0 750.2 60 0
        </DataArray>
      </Points>
      <Cells>
        <DataArray type="Int32" Name="connectivity" NumberOfComponents="1" format="ascii">
          0 1 3 2 1 4 5 3 4 6 7 5
          6 8 9 7 8 10 11 9 10 12 13 11
          12 14 15 13 14 16 17 15 16 18 19 17
          18 20 21 19 20 22 23 21 22 24 25 23
          24 26 27 25 26 28 29 27 28 30 31 29
          30 32 33 31 32 34 35 33 34 36 37 35
          36 38 39 37 38 40 41 39 40 42 43 41
          42 44 45 43 44 46 47 45 46 48 49 47
          48 50 51 49 50 52 53 51 52 54 55 53
          54 56 57 55 56 58 59 57 58 60 61 59
          60 62 63 61 62 64 65 63 64 66 67 65
          66 68 69 67 68 70 71 69 70 72 73 71
          72 74 75 73 74 76 77 75 76 78 79 77
          78 80 81 79 80 82 83 81 82 84 85 83
          84 86 87 85 86 88 89 87 88 90 91 89
          90 92 93 91 92 94 95 93 94 96 97 95
          96 98 99 97 98 100 101 99 2 3 103 102
          3 5 104 103 5 7 105 104 7 9 106 105
          9 11 107 106 11 13 108 107 13 15 109 108
          15 17 110 109 17 19 111 110 19 21 112 111
          21 23 113 112 23 25 114 113 25 27 115 114
          27 29 116 115 29 31 117 116 31 33 118 117
          33 35 119 118 35 37 120 119 37 39 121 120
          39 41 122 121 41 43 123 122 43 45 124 123
          45 47 125 124 47 49 126 125 49 51 127 126
          51 53 128 127 53 55 129 128 55 57 130 129
          57 59 131 130 59 61 132 131 61 63 133 132
          63 65 134 133 65 67 135 134 67 69 136 135
          69 71 137 136 71 73 138 137 73 75 139 138
          75 77 140 139 77 79 141 140 79 81 142 141
          81 83 143 142 83 85 144 143 85 87 145 144
          87 89 146 145 89 91 147 146 91 93 148 147
          93 95 149 148 95 97 150 149 97 99 151 150
          99 101 152 151 102 103 154 153 103 104 155 154
          104 105 156 155 105 106 157 156 106 107 158 157
          107 108 159 158 108 109 160 159 109 110 161 160
          110 111 162 161 111 112 163 162 112 113 164 163
          113 114 165 164 114 115 166 165 115 116 167 166
          116 117 168 167 117 118 169 168 118 119 170 169
          119 120 171 170 120 121 172 171 121 122 173 172
          122 123 174 173 123 124 175 174 124 125 176 175
          125 126 177 176 126 127 178 177 127 128 179 178
          128 129 180 179 129 130 181 180 130 131 182 181
          131 132 183 182 132 133 184 183 133 134 185 184
          134 135 186 185 135 136 187 186 136 137 188 187
          137 138 189 188 138 139 190 189 139 140 191 190
          140 141 192 191 141 142 193 192 142 143 194 193
          143 144 195 194 144 145 196 195 145 146 197 196