<?xml version="1.0"?>
<VTKFile type="UnstructuredGrid" version="0.1" byte_order="LittleEndian">
  <UnstructuredGrid>
    <Piece NumberOfCells="1000" NumberOfPoints="1071">
      <PointData Scalars="S_liq" Vectors="velocity_liq (m/s)">
        <DataArray type="Float32" Name="S_liq" NumberOfComponents="1" format="ascii">
          0.999692 0.999688 0.999968 0.999968 0.999684 0.99997 0.99968 0.99997 0.999676 0.999974 0.999672 0.999976
          0.999668 0.99998 0.999664 0.999983 0.999659 0.999987 0.999655 0.99999 0.999651 0.999995 0.999649 0.999999
          0.999649 1 0.999651 1 0.999654 1 0.999658 1 0.999663 1 0.999668 1
          0.999673 1 0.999679 1 0.999686 1 0.999694 1 0.999703 1 0.999713 1
          0.999724 1 0.999737 1 0.999752 1 0.999768 1 0.999787 1 0.999809 1
          0.999836 1 0.99987 1 0.999919 1 1 1 0.999996 0.999999 0.999986 0.999998
          0.999985 0.999998 0.999986 1 0.99999 0.999996 0.999986 0.999998 0.999982 1 0.999981 0.999999
          0.999981 1 0.999982 1 0.999982 1 0.999981 1 0.999981 1 0.99998 1
          0.99998 1 0.999981 1 0.999981 1 0.999989 0.999993 0.999996 1 1 1
          1 1 1 1 1 1 1 1 1 1 1 1
          1 1 1 1 1 1 1 1 1 1 1 1
          1 1 1 1 0.999999 0.999999 0.999999 0.999999 1 0.999999 1 0.999999
          1 0.999999 0.999999 0.999999 0.999999 0.999999 0.999999 0.999999 1 0.999998 1 1
          1 1 1 1 1 1 1 1 1 1 1 1
          1 1 1 1 1 1 1 1 1 1 1 0.999998
          0.999998 0.999998 0.999998 0.999998 0.999997 0.999998 0.999998 0.999999 0.999998 0.999998 0.999999 0.999998
          0.999999 0.999998 0.999999 0.999998 0.999998 0.999999 0.999998 0.999999 0.999999 0.999998 0.999999 0.999998
          1 1 1 1 1 1 1 1 1 1 1 1
          1 1 1 1 1 1 1 1 1 1 1 1
          1 1 1 1 1 1 1 1 1 0.999999 0.999999 0.999999
          0.999999 0.999999 0.999999 0.999999 0.999999 0.999999 0.999999 0.999999 0.999999 0.999999 0.999999 0.999999
          0.999999 0.999999 0.999999 1 1 1 1 1 1 1 1 1
          1 1 1 1 1 1 1 1 1 1 1 1
          1 1 1 1 0.999999 0.999999 0.999999 0.999998 0.999998 0.999998 0.999998 0.999998
          0.999999 0.999999 0.999999 0.999999 0.999999 0.999999 0.999999 0.999999 0.999999 0.999999 0.999999 0.999999
          0.999999 0.999999 0.999999 0.999999 0.999999 0.999999 1 1 1 1 1 1
          1 1 1 1 1 1 1 1 1 1 1 1
          1 1 1 1 1 1 1 1 1 1 1 1
          1 1 0.999999 0.999999 0.999999 0.999999 0.999999 0.999999 0.999999 0.999999 0.999999 0.999999
          0.999999 0.999999 0.999999 0.999999 0.999999 0.999999 0.999999 0.999999 0.999999 1 1 1
          1 1 1 1 1 1 1 1 1 1 1 1
          1 1 1 1 1 1 1 1 1 1 1 1
          0.999999 0.999999 0.999998 0.999998 0.999998 0.999999 0.999999 0.999999 0.999999 0.999999 0.999999 0.999999
          0.999999 0.999999 0.999999 0.999999 0.999999 0.999999 0.999999 0.999999 0.999999 0.999999 0.999999 0.999999
          1 1 1 1 1 1 1 1 1 1 1 1
          1 1 1 1 1 1 1 1 1 1 1 1
          1 1 1 1 1 1 1 0.999999 0.999999 0.999999 0.999999 0.999999
          0.999999 0.999999 0.999999 0.999999 0.999999 0.999999 0.999999 0.999999 0.999999 0.999999 0.999999 0.999999
          0.999999 0.999999 0.999999 1 1 1 1 1 1 1 1 1
          1 1 1 1 1 1 1 1 1 1 1 1
          1 1 1 1 1 1 1 1 1 1 0.999999 0.999999
          0.999999 0.999999 0.999999 0.999999 0.999999 0.999999 0.999999 0.999999 0.999999 0.999999 0.999999 0.999999
          0.999999 0.999999 0.999999 0.999999 0.999999 0.999999 1 1 1 1 1 1
          1 1 1 1 1 1 1 1 1 1 1 1
          1 1 1 1 1 1 1 1 1 1 1 1
          1 1 1 0.999999 0.999999 0.999999 0.999999 0.999999 0.999999 0.999999 0.999999 0.999999
          0.999999 0.999999 0.999999 0.999999 0.999999 0.999999 0.999999 0.999999 0.999999 1 1 1
          1 1 1 1 1 1 1 1 1 1 1 1
          1 1 1 1 1 1 1 1 1 1 1 1
          1 1 1 1 1 1 1 1 0.999999 0.999999 0.999999 0.999999
          0.999999 0.999999 0.999999 0.999999 0.999999 0.999999 0.999999 0.999999 0.999999 0.999999 0.999999 0.999999
          1 1 1 1 1 1 1 1 1 1 1 1
          1 1 1 1 1 1 1 1 1 1 1 1
          1 1 1 1 1 1 1 1 1 1 1 1
          1 1 1 0.999999 0.999999 0.999999 0.999999 0.999999 0.999999 0.999999 0.999999 0.999999
          0.999999 0.999999 0.999999 1 1 1 1 1 1 1 1 1
          1 1 1 1 1 1 1 1 1 1 1 1
          1 1 1 1 1 1 1 1 1 1 1 1
          1 1 1 1 1 1 1 1 1 1 1 1
          1 1 1 1 1 1 1 1 1 1 1 1
          1 1 1 1 1 1 1 1 1 1 1 1
          1 1 1 1 1 1 1 1 1 1 1 1
          1 1 1 1 1 1 1 1 1 1 1 1
          1 1 1 1 1 1 1 1 1 1 1 1
          1 1 1 1 1 1 1 1 1 1 1 1
          1 1 1 1 1 1 1 1 1 1 1 1
          1 1 1 1 1 1 1 1 1 1 1 1
          1 1 1 1 1 1 1 1 1 1 1 1
          1 1 1 1 1 1 1 1 1 1 1 1
          1 1 1 1 1 1 1 1 1 1 1 1
          1 1 1 1 1 1 1 1 1 1 1 1
          1 1 1 1 1 1 1 1 1 1 1 1
          1 1 1 1 1 1 1 1 1 1 1 1
          1 1 1 1 1 1 1 1 1 1 1 1
          1 1 1 1 1 1 1 1 1 1 1 1
          1 1 1 1 1 1 1 1 1 1 1 1
          1 1 1 1 1 1 1 1 1 1 1 1
          1 1 1 1 1 1 1 1 1 1 1 1
          1 1 1 1 1 1 1 1 1 1 1 1
          1 1 1 1 1 1 1 1 1 1 1 1
          1 1 1 1 1 1 1 1 1 1 1 1
          1 1 1 1 1 1 1 1 1 1 1 1
          1 1 1 1 1 1 1 1 1 1 1 1
          1 1 1 1 1 1 1 1 1 1 1 1
          1 1 1 1 1 1 1 1 1 1 1 1
          1 1 1 1 1 1 1 1 1 1 1 1
          1 1 1 1 1 1 1 1 1 1 1 1
          1 1 1 1 1 1 1 1 1 1 1 1
          1 1 1 1 1 1 1 1 1 1 1 1
          1 1 1
        </DataArray>
        <DataArray type="Float32" Name="p_liq" NumberOfComponents="1" format="ascii">
          2.0481e+07 2.04826e+07 2.04516e+07 2.04532e+07 2.04843e+07 2.04549e+07 2.04859e+07 2.04565e+07 2.04875e+07 2.0458e+07 2.0489e+07 2.04596e+07
          2.04905e+07 2.04611e+07 2.04921e+07 2.04626e+07 2.04936e+07 2.04641e+07 2.0495e+07 2.04656e+07 2.04965e+07 2.04671e+07 2.04979e+07 2.04685e+07
          2.04993e+07 2.04699e+07 2.05008e+07 2.04713e+07 2.05021e+07 2.04727e+07 2.05035e+07 2.04741e+07 2.05049e+07 2.04754e+07 2.05062e+07 2.04768e+07
          2.05075e+07 2.04781e+07 2.05089e+07 2.04794e+07 2.05102e+07 2.04807e+07 2.05114e+07 2.0482e+07 2.05127e+07 2.04833e+07 2.0514e+07 2.04846e+07
          2.05152e+07 2.04858e+07 2.05165e+07 2.04871e+07 2.05177e+07 2.04883e+07 2.05189e+07 2.04895e+07 2.05201e+07 2.04907e+07 2.05213e+07 2.04919e+07
          2.05225e+07 2.04931e+07 2.05237e+07 2.04943e+07 2.05249e+07 2.04955e+07 2.0526e+07 2.04966e+07 2.05272e+07 2.04978e+07 2.05284e+07 2.0499e+07
          2.05295e+07 2.05001e+07 2.05307e+07 2.05012e+07 2.05318e+07 2.05024e+07 2.05329e+07 2.05035e+07 2.0534e+07 2.05046e+07 2.05351e+07 2.05057e+07
          2.05362e+07 2.05067e+07 2.05373e+07 2.05078e+07 2.05383e+07 2.05089e+07 2.05394e+07 2.051e+07 2.05404e+07 2.0511e+07 2.05415e+07 2.05121e+07
          2.05425e+07 2.05131e+07 2.05436e+07 2.05141e+07 2.05446e+07 2.05152e+07 2.04222e+07 2.04238e+07 2.04255e+07 2.04271e+07 2.04286e+07 2.04302e+07
          2.04317e+07 2.04332e+07 2.04347e+07 2.04362e+07 2.04377e+07 2.04391e+07 2.04405e+07 2.04419e+07 2.04433e+07 2.04447e+07 2.0446e+07 2.04474e+07
          2.04487e+07 2.045e+07 2.04513e+07 2.04526e+07 2.04539e+07 2.04552e+07 2.04564e+07 2.04577e+07 2.04589e+07 2.04601e+07 2.04613e+07 2.04625e+07
          2.04637e+07 2.04649e+07 2.04661e+07 2.04672e+07 2.04684e+07 2.04695e+07 2.04707e+07 2.04718e+07 2.04729e+07 2.0474e+07 2.04751e+07 2.04762e+07
          2.04773e+07 2.04784e+07 2.04795e+07 2.04805e+07 2.04816e+07 2.04826e+07 2.04837e+07 2.04847e+07 2.04857e+07 2.03929e+07 2.03945e+07 2.03961e+07
          2.03977e+07 2.03993e+07 2.04008e+07 2.04024e+07 2.04039e+07 2.04054e+07 2.04068e+07 2.04083e+07 2.04097e+07 2.04111e+07 2.04125e+07 2.04139e+07
          2.04153e+07 2.04166e+07 2.0418e+07 2.04193e+07 2.04206e+07 2.04219e+07 2.04232e+07 2.04245e+07 2.04258e+07 2.0427e+07 2.04282e+07 2.04295e+07
          2.04307e+07 2.04319e+07 2.04331e+07 2.04343e+07 2.04355e+07 2.04367e+07 2.04378e+07 2.0439e+07 2.04401e+07 2.04413e+07 2.04424e+07 2.04435e+07
          2.04446e+07 2.04457e+07 2.04468e+07 2.04479e+07 2.0449e+07 2.045e+07 2.04511e+07 2.04522e+07 2.04532e+07 2.04542e+07 2.04553e+07 2.04563e+07
          2.03635e+07 2.03652e+07 2.03668e+07 2.03684e+07 2.03699e+07 2.03715e+07 2.0373e+07 2.03745e+07 2.0376e+07 2.03775e+07 2.03789e+07 2.03803e+07
          2.03817e+07 2.03831e+07 2.03845e+07 2.03859e+07 2.03872e+07 2.03886e+07 2.03899e+07 2.03912e+07 2.03925e+07 2.03938e+07 2.03951e+07 2.03964e+07
          2.03976e+07 2.03988e+07 2.04001e+07 2.04013e+07 2.04025e+07 2.04037e+07 2.04049e+07 2.04061e+07 2.04072e+07 2.04084e+07 2.04096e+07 2.04107e+07
          2.04118e+07 2.0413e+07 2.04141e+07 2.04152e+07 2.04163e+07 2.04174e+07 2.04185e+07 2.04195e+07 2.04206e+07 2.04217e+07 2.04227e+07 2.04238e+07
          2.04248e+07 2.04258e+07 2.04269e+07 2.03342e+07 2.03359e+07 2.03375e+07 2.03391e+07 2.03406e+07 2.03422e+07 2.03437e+07 2.03452e+07 2.03466e+07
          2.03481e+07 2.03495e+07 2.0351e+07 2.03524e+07 2.03538e+07 2.03552e+07 2.03565e+07 2.03579e+07 2.03592e+07 2.03605e+07 2.03618e+07 2.03631e+07
          2.03644e+07 2.03657e+07 2.0367e+07 2.03682e+07 2.03694e+07 2.03707e+07 2.03719e+07 2.03731e+07 2.03743e+07 2.03755e+07 2.03767e+07 2.03778e+07
          2.0379e+07 2.03801e+07 2.03813e+07 2.03824e+07 2.03835e+07 2.03847e+07 2.03858e+07 2.03869e+07 2.0388e+07 2.0389e+07 2.03901e+07 2.03912e+07
          2.03923e+07 2.03933e+07 2.03944e+07 2.03954e+07 2.03964e+07 2.03974e+07 2.0305e+07 2.03066e+07 2.03082e+07 2.03098e+07 2.03113e+07 2.03128e+07
          2.03144e+07 2.03158e+07 2.03173e+07 2.03188e+07 2.03202e+07 2.03216e+07 2.0323e+07 2.03244e+07 2.03258e+07 2.03272e+07 2.03285e+07 2.03298e+07
          2.03311e+07 2.03325e+07 2.03337e+07 2.0335e+07 2.03363e+07 2.03376e+07 2.03388e+07 2.034e+07 2.03413e+07 2.03425e+07 2.03437e+07 2.03449e+07
          2.03461e+07 2.03473e+07 2.03484e+07 2.03496e+07 2.03507e+07 2.03519e+07 2.0353e+07 2.03541e+07 2.03552e+07 2.03564e+07 2.03575e+07 2.03585e+07
[...]
      <CellData Scalars="process rank">
        <DataArray type="Float32" Name="process rank" NumberOfComponents="1" format="ascii">
          2 2 2 2 2 2 2 2 2 2 2 2
          2 2 2 2 2 2 2 2 2 2 2 2
          2 2 2 2 2 2 2 2 2 2 2 2
          2 2 2 2 2 2 2 2 2 2 2 2
          2 2 2 2 2 2 2 2 2 2 2 2
          2 2 2 2 2 2 2 2 2 2 2 2
          2 2 2 2 2 2 2 2 2 2 2 2
          2 2 2 2 2 2 2 2 2 2 2 2
          2 2 2 2 2 2 2 2 2 2 2 2
          2 2 2 2 2 2 2 2 2 2 2 2
          2 2 2 2 2 2 2 2 2 2 2 2
          2 2 2 2 2 2 2 2 2 2 2 2
          2 2 2 2 2 2 2 2 2 2 2 2
          2 2 2 2 2 2 2 2 2 2 2 2
          2 2 2 2 2 2 2 2 2 2 2 2
          2 2 2 2 2 2 2 2 2 2 2 2
          2 2 2 2 2 2 2 2 2 2 2 2
          2 2 2 2 2 2 2 2 2 2 2 2
          2 2 2 2 2 2 2 2 2 2 2 2
          2 2 2 2 2 2 2 2 2 2 2 2
          2 2 2 2 2 2 2 2 2 2 2 2
          2 2 2 2 2 2 2 2 2 2 2 2
          2 2 2 2 2 2 2 2 2 2 2 2
          2 2 2 2 2 2 2 2 2 2 2 2
          2 2 2 2 2 2 2 2 2 2 2 2
          2 2 2 2 2 2 2 2 2 2 2 2
          2 2 2 2 2 2 2 2 2 2 2 2
          2 2 2 2 2 2 2 2 2 2 2 2
          2 2 2 2 2 2 2 2 2 2 2 2
          2 2 2 2 2 2 2 2 2 2 2 2
          2 2 2 2 2 2 2 2 2 2 2 2
          2 2 2 2 2 2 2 2 2 2 2 2
          2 2 2 2 2 2 2 2 2 2 2 2
          2 2 2 2 2 2 2 2 2 2 2 2
          2 2 2 2 2 2 2 2 2 2 2 2
          2 2 2 2 2 2 2 2 2 2 2 2
          2 2 2 2 2 2 2 2 2 2 2 2
          2 2 2 2 2 2 2 2 2 2 2 2
          2 2 2 2 2 2 2 2 2 2 2 2
          2 2 2 2 2 2 2 2 2 2 2 2
          2 2 2 2 2 2 2 2 2 2 2 2
          2 2 2 2 2 2 2 2 2 2 2 2
          2 2 2 2 2 2 2 2 2 2 2 2
          2 2 2 2 2 2 2 2 2 2 2 2
          2 2 2 2 2 2 2 2 2 2 2 2
          2 2 2 2 2 2 2 2 2 2 2 2
          2 2 2 2 2 2 2 2 2 2 2 2
          2 2 2 2 2 2 2 2 2 2 2 2
          2 2 2 2 2 2 2 2 2 2 2 2
          2 2 2 2 2 2 2 2 2 2 2 2
          2 2 2 2 2 2 2 2 2 2 2 2
          2 2 2 2 2 2 2 2 2 2 2 2
          2 2 2 2 2 2 2 2 2 2 2 2
          2 2 2 2 2 2 2 2 2 2 2 2
          2 2 2 2 2 2 2 2 2 2 2 2
          2 2 2 2 2 2 2 2 2 2 2 2
          2 2 2 2 2 2 2 2 2 2 2 2
          2 2 2 2 2 2 2 2 2 2 2 2
          2 2 2 2 2 2 2 2 2 2 2 2
          2 2 2 2 2 2 2 2 2 2 2 2
          2 2 2 2 2 2 2 2 2 2 2 2
          2 2 2 2 2 2 2 2 2 2 2 2
          2 2 2 2 2 2 2 2 2 2 2 2
          2 2 2 2 2 2 2 2 2 2 2 2
          2 2 2 2 2 2 2 2 2 2 2 2
          2 2 2 2 2 2 2 2 2 2 2 2
          2 2 2 2 2 2 2 2 2 2 2 2
          2 2 2 2 2 2 2 2 2 2 2 2
          2 2 2 2 2 2 2 2 2 2 2 2
          2 2 2 2 2 2 2 2 2 2 2 2
          2 2 2 2 2 2 2 2 2 2 2 2
          2 2 2 2 2 2 2 2 2 2 2 2
          2 2 2 2 2 2 2 2 2 2 2 2
          2 2 2 2 2 2 2 2 2 2 2 2
          2 2 2 2 2 2 2 2 2 2 2 2
          2 2 2 2 2 2 2 2 2 2 2 2
          2 2 2 2 2 2 2 2 2 2 2 2
          2 2 2 2 2 2 2 2 2 2 2 2
          2 2 2 2 2 2 2 2 2 2 2 2
          2 2 2 2 2 2 2 2 2 2 2 2
          2 2 2 2 2 2 2 2 2 2 2 2
          2 2 2 2 2 2 2 2 2 2 2 2
          2 2 2 2 2 2 2 2 2 2 2 2
          2 2 2 2
        </DataArray>
      </CellData>
      <Points>
        <DataArray type="Float32" Name="Coordinates" NumberOfComponents="3" format="ascii">
          500.2 0 0 505.2 0 0 500.2 3 0 505.2 3 0
          510.2 0 0 510.2 3 0 515.2 0 0 515.2 3 0
          520.2 0 0 520.2 3 0 525.2 0 0 525.2 3 0
          530.2 0 0 530.2 3 0 535.2 0 0 535.2 3 0
          540.2 0 0 540.2 3 0 545.2 0 0 545.2 3 0
          550.2 0 0 550.2 3 0 555.2 0 0 555.2 3 0
          560.2 0 0 560.2 3 0 565.2 0 0 565.2 3 0
          570.2 0 0 570.2 3 0 575.2 0 0 575.2 3 0
          580.2 0 0 580.2 3 0 585.2 0 0 585.2 3 0
          590.2 0 0 590.2 3 0 595.2 0 0 595.2 3 0
          600.2 0 0 600.2 3 0 605.2 0 0 605.2 3 0
          610.2 0 0 610.2 3 0 615.2 0 0 615.2 3 0
          620.2 0 0 620.2 3 0 625.2 0 0 625.2 3 0
          630.2 0 0 630.2 3 0 635.2 0 0 635.2 3 0
          640.2 0 0 640.2 3 0 645.2 0 0 645.2 3 0
          650.2 0 0 650.2 3 0 655.2 0 0 655.2 3 0
          660.2 0 0 660.2 3 0 665.2 0 0 665.2 3 0
          670.2 0 0 670.2 3 0 675.2 0 0 675.2 3 0
          680.2 0 0 680.2 3 0 685.2 0 0 685.2 3 0
          690.2 0 0 690.2 3 0 695.2 0 0 695.2 3 0
          700.2 0 0 700.2 3 0 705.2 0 0 705.2 3 0
          710.2 0 0 710.2 3 0 715.2 0 0 715.2 3 0
          720.2 0 0 720.2 3 0 725.2 0 0 725.2 3 0
          730.2 0 0 730.2 3 0 735.2 0 0 735.2 3 0
          740.2 0 0 740.2 3 0 745.2 0 0 745.2 3 0
          750.2 0 0 750.2 3 0 500.2 6 0 505.2 6 0
          510.2 6 0 515.2 6 0 520.2 6 0 525.2 6 0
          530.2 6 0 535.2 6 0 540.2 6 0 545.2 6 0
          550.2 6 0 555.2 6 0 560.2 6 0 565.2 6 0
          570.2 6 0 575.2 6 0 580.2 6 0 585.2 6 0
          590.2 6 0 595.2 6 0 600.2 6 0 605.2 6 0
          610.2 6 0 615.2 6 0 620.2 6 0 625.2 6 0
          630.2 6 0 635.2 6 0 640.2 6 0 645.2 6 0
          650.2 6 0 655.2 6 0 660.2 6 0 665.2 6 0
          670.2 6 0 675.2 6 0 680.2 6 0 685.2 6 0
          690.2 6 0 695.2 6 0 700.2 6 0 705.2 6 0
          710.2 6 0 715.2 6 0 720.2 6 0 725.2 6 0
          730.2 6 0 735.2 6 0 740.2 6 0 745.2 6 0
          750.2 6 0 500.2 9 0 505.2 9 0 510.2 9 0
          515.2 9 0 520.2 9 0 525.2 9 0 530.2 9 0
          535.2 9 0 540.2 9 0 545.2 9 0 550.2 9 0
          555.2 9 0 560.2 9 0 565.2 9 0 570.2 9 0
          575.2 9 0 580.2 9 0 585.2 9 0 590.2 9 0
          595.2 9 0 600.2 9 0 605.2 9 0 610.2 9 0
          615.2 9 0 620.2 9 0 625.2 9 0 630.2 9 0
          635.2 9 0 640.2 9 0 645.2 9 0 650.2 9 0
          655.2 9 0 660.2 9 0 665.2 9 0 670.2 9 0
          675.2 9 0 680.2 9 0 685.2 9 0 690.2 9 0
          695.2 9 0 700.2 9 0 705.2 9 0 710.2 9 0
          715.2 9 0 720.2 9 0 725.2 9 0 730.2 9 0
          735.2 9 0 740.2 9 0 745.2 9 0 750.2 9 0
          500.2 12 0 505.2 12 0 510.2 12 0 515.2 12 0
          520.2 12 0 525.2 12 0 530.2 12 0 535.2 12 0
          540.2 12 0 545.2 12 0 550.2 12 0 555.2 12 0
          560.2 12 0 565.2 12 0 570.2 12 0 575.2 12 0
          580.2 12 0 585.2 12 0 590.2 12 0 595.2 12 0
          600.2 12 0 605.2 12 0 610.2 12 0 615.2 12 0
          620.2 12 0 625.2 12 0 630.2 12 0 635.2 12 0
          640.2 12 0 645.2 12 0 650.2 12 0 655.2 12 0
          660.2 12 0 665.2 12 0 670.2 12 0 675.2 12 0
          680.2 12 0 685.2 12 0 690.2 12 0 695.2 12 0
          700.2 12 0 705.2 12 0 710.2 12 0 715.2 12 0
          720.2 12 0 725.2 12 0 730.2 12 0 735.2 12 0
          740.2 12 0 745.2 12 0 750.2 12 0 500.2 15 0
          505.2 15 0 510.2 15 0 515.2 15 0 520.2 15 0
          525.2 15 0 530.2 15 0 535.2 15 0 540.2 15 0
          545.2 15 0 550.2 15 0 555.2 15 0 560.2 15 0
          565.2 15 0 570.2 15 0 575.2 15 0 580.2 15 0
          585.2 15 0 590.2 15 0 595.2 15 0 600.2 15 0
          605.2 15 0 610.2 15 0 615.2 15 0 620.2 15 0
          625.2 15 0 630.2 15 0 635.2 15 0 640.2 15 0
          645.2 15 0 650.2 15 0 655.2 15 0 660.2 15 0
          665.2 15 0 670.2 15 0 675.2 15 0 680.2 15 0
          685.2 15 0 690.2 15 0 695.2 15 0 700.2 15 0
          705.2 15 0 710.2 15 0 715.2 15 0 720.2 15 0
          725.2 15 0 730.2 15 0 735.2 15 0 740.2 15 0
          745.2 15 0 750.2 15 0 500.2 18 0 505.2 18 0
          510.2 18 0 515.2 18 0 520.2 18 0 525.2 18 0
          530.2 18 0 535.2 18 0 540.2 18 0 545.2 18 0
          550.2 18 0 555.2 18 0 560.2 18 0 565.2 18 0
          570.2 18 0 575.2 18 0 580.2 18 0 585.2 18 0
          590.2 18 0 595.2 18 0 600.2 18 0 605.2 18 0
          610.2 18 0 615.2 18 0 620.2 18 0 625.2 18 0
          630.2 18 0 635.2 18 0 640.2 18 0 645.2 18 0
          650.2 18 0 655.2 18 0 660.2 18 0 665.2 18 0
          670.2 18 0 675.2 18 0 680.2 18 0 685.2 18 0
          690.2 18 0 695.2 18 0 700.2 18 0 705.2 18 0
          710.2 18 0 715.2 18 0 720.2 18 0 725.2 18 0
          730.2 18 0 735.2 18 0 740.2 18 0 745.2 18 0
          750.2 18 0 500.2 21 0 505.2 21 0 510.2 21 0
          515.2 21 0 520.2 21 0 525.2 21 0 530.2 21 0
          535.2 21 0 540.2 21 0 545.2 21 0 550.2 21 0
          555.2 21 0 560.2 21 0 565.2 21 0 570.2 21 0
          575.2 21 0 580.2 21 0 585.2 21 0 590.2 21 0
          595.2 21 0 600.2 21 0 605.2 21 0 610.2 21 0
          615.2 21 0 620.2 21 0 625.2 21 0 630.2 21 0
          635.2 21 0 640.2 21 0 645.2 21 0 650.2 21 0
          655.2 21 0 660.2 21 0 665.2 21 0 670.2 21 0
          675.2 21 0 680.2 21 0 685.2 21 0 690.2 21 0
          695.2 21 0 700.2 21 0 705.2 21 0 710.2 21 0
          715.2 21 0 720.2 21 0 725.2 21 0 730.2 21 0
          735.2 21 0 740.2 21 0 745.2 21 0 750.2 21 0
          500.2 24 0 505.2 24 0 510.2 24 0 515.2 24 0
          520.2 24 0 525.2 24 0 530.2 24 0 535.2 24 0
          540.2 24 0 545.2 24 0 550.2 24 0 555.2 24 0
          560.2 24 0 565.2 24 0 570.2 24 0 575.2 24 0
          580.2 24 0 585.2 24 0 590.2 24 0 595.2 24 0
          600.2 24 0 605.2 24 0 610.2 24 0 615.2 24 0
          620.2 24 0 625.2 24 0 630.2 24 0 635.2 24 0
          640.2 24 0 645.2 24 0 650.2 24 0 655.2 24 0
          660.2 24 0 665.2 24 0 670.2 24 0 675.2 24 0
          680.2 24 0 685.2 24 0 690.2 24 0 695.2 24 0
          700.2 24 0 705.2 24 0 710.2 24 0 715.2 24 0
          720.2 24 0 725.2 24 0 730.2 24 0 735.2 24 0
          740.2 24 0 745.2 24 0 750.2 24 0 500.2 27 0
          505.2 27 0 510.2 27 0 515.2 27 0 520.2 27 0
          525.2 27 0 530.2 27 0 535.2 27 0 540.2 27 0
          545.2 27 0 550.2 27 0 555.2 27 0 560.2 27 0
          565.2 27 0 570.2 27 0 575.2 27 0 580.2 27 0
          585.2 27 0 590.2 27 0 595.2 27 0 600.2 27 0
          605.2 27 0 610.2 27 0 615.2 27 0 620.2 27 0
          625.2 27 0 630.2 27 0 635.2 27 0 640.2 27 0
          645.2 27 0 650.2 27 0 655.2 27 0 660.2 27 0
          665.2 27 0 670.2 27 0 675.2 27 0 680.2 27 0
          685.2 27 0 690.2 27 0 695.2 27 0 700.2 27 0
          705.2 27 0 710.2 27 0 715.2 27 0 720.2 27 0
          725.2 27 0 730.2 27 0 735.2 27 0 740.2 27 0
          745.2 27 0 750.2 27 0 500.2 30 0 505.2 30 0
          510.2 30 0 515.2 30 0 520.2 30 0 525.2 30 0
          530.2 30 0 535.2 30 0 540.2 30 0 545.2 30 0
          550.2 30 0 555.2 30 0 560.2 30 0 565.2 30 0
          570.2 30 0 575.2 30 0 580.2 30 0 585.2 30 0
          590.2 30 0 595.2 30 0 600.2 30 0 605.2 30 0
          610.2 30 0 615.2 30 0 620.2 30 0 625.2 30 0
          630.2 30 0 635.2 30 0 640.2 30 0 645.2 30 0
          650.2 30 0 655.2 30 0 660.2 30 0 665.2 30 0
          670.2 30 0 675.2 30 0 680.2 30 0 685.2 30 0
          690.2 30 0 695.2 30 0 700.2 30 0 705.2 30 0
          710.2 30 0 715.2 30 0 720.2 30 0 725.2 30 0
          730.2 30 0 735.2 30 0 740.2 30 0 745.2 30 0
          750.2 30 0 500.2 33 0 505.2 33 0 510.2 33 0
          515.2 33 0 520.2 33 0 525.2 33 0 530.2 33 0
          535.2 33 0 540.2 33 0 545.2 33 0 550.2 33 0
          555.2 33 0 560.2 33 0 565.2 33 0 570.2 33 0
          575.2 33 0 580.2 33 0 585.2 33 0 590.2 33 0
          595.2 33 0 600.2 33 0 605.2 33 0 610.2 33 0
          615.2 33 0 620.2 33 0 625.2 33 0 630.2 33 0
          635.2 33 0 640.2 33 0 645.2 33 0 650.2 33 0
          655.2 33 0 660.2 33 0 665.2 33 0 670.2 33 0
          675.2 33 0 680.2 33 0 685.2 33 0 690.2 33 0
          695.2 33 0 700.2 33 0 705.2 33 0 710.2 33 0
          715.2 33 0 720.2 33 0 725.2 33 0 730.2 33 0
          735.2 33 0 740.2 33 0 745.2 33 0 750.2 33 0
          500.2 36 0 505.2 36 0 510.2 36 0 515.2 36 0
          520.2 36 0 525.2 36 0 530.2 36 0 535.2 36 0
          540.2 36 0 545.2 36 0 550.2 36 0 555.2 36 0
          560.2 36 0 565.2 36 0 570.2 36 0 575.2 36 0
          580.2 36 0 585.2 36 0 590.2 36 0 595.2 36 0
          600.2 36 0 605.2 36 0 610.2 36 0 615.2 36 0
          620.2 36 0 625.2 36 0 630.2 36 0 635.2 36 0
          640.2 36 0 645.2 36 0 650.2 36 0 655.2 36 0
          660.2 36 0 665.2 36 0 670.2 36 0 675.2 36 0
          680.2 36 0 685.2 36 0 690.2 36 0 695.2 36 0
          700.2 36 0 705.2 36 0 710.2 36 0 715.2 36 0
          720.2 36 0 725.2 36 0 730.2 36 0 735.2 36 0
          740.2 36 0 745.2 36 0 750.2 36 0 500.2 39 0
          505.2 39 0 510.2 39 0 515.2 39 0 520.2 39 0
          525.2 39 0 530.2 39 0 535.2 39 0 540.2 39 0
          545.2 39 0 550.2 39 0 555.2 39 0 560.2 39 0
          565.2 39 0 570.2 39 0 575.2 39 0 580.2 39 0
          585.2 39 0 590.2 39 0 595.2 39 0 600.2 39 0
          605.2 39 0 610.2 39 0 615.2 39 0 620.2 39 0
          625.2 39 0 630.2 39 0 635.2 39 0 640.2 39 0
          645.2 39 0 650.2 39 0 655.2 39 0 660.2 39 0
          665.2 39 0 670.2 39 0 675.2 39 0 680.2 39 0
          685.2 39 0 690.2 39 0 695.2 39 0 700.2 39 0
          705.2 39 0 710.2 39 0 715.2 39 0 720.2 39 0
          725.2 39 0 730.2 39 0 735.2 39 0 740.2 39 0
          745.2 39 0 750.2 39 0 500.2 42 0 505.2 42 0
          510.2 42 0 515.2 42 0 520.2 42 0 525.2 42 0
          530.2 42 0 535.2 42 0 540.2 42 0 545.2 42 0
          550.2 42 0 555.2 42 0 560.2 42 0 565.2 42 0
          570.2 42 0 575.2 42 0 580.2 42 0 585.2 42 0
          590.2 42 0 595.2 42 0 600.2 42 0 605.2 42 0
          610.2 42 0 615.2 42 0 620.2 42 0 625.2 42 0
          630.2 42 0 635.2 42 0 640.2 42 0 645.2 42 0
          650.2 42 0 655.2 42 0 660.2 42 0 665.2 42 0
          670.2 42 0 675.2 42 0 680.2 42 0 685.2 42 0
          690.2 42 0 695.2 42 0 700.2 42 0 705.2 42 0
          710.2 42 0 715.2 42 0 720.2 42 0 725.2 42 0
          730.2 42 0 735.2 42 0 740.2 42 0 745.2 42 0
          750.2 42 0 500.2 45 0 505.2 45 0 510.2 45 0
          515.2 45 0 520.2 45 0 525.2 45 0 530.2 45 0
          535.2 45 0 540.2 45 0 545.2 45 0 550.2 45 0
          555.2 45 0 560.2 45 0 565.2 45 0 570.2 45 0
          575.2 45 0 580.2 45 0 585.2 45 0 590.2 45 0
          595.2 45 0 600.2 45 0 605.2 45 0 610.2 45 0
          615.2 45 0 620.2 45 0 625.2 45 0 630.2 45 0
          635.2 45 0 640.2 45 0 645.2 45 0 650.2 45 0
          655.2 45 0 660.2 45 0 665.2 45 0 670.2 45 0
          675.2 45 0 680.2 45 0 685.2 45 0 690.2 45 0
          695.2 45 0 700.2 45 0 705.2 45 0 710.2 45 0
          715.2 45 0 720.2 45 0 725.2 45 0 730.2 45 0
          735.2 45 0 740.2 45 0 745.2 45 0 750.2 45 0
          500.2 48 0 505.2 48 0 510.2 48 0 515.2 48 0
          520.2 48 0 525.2 48 0 530.2 48 0 535.2 48 0
          540.2 48 0 545.2 48 0 550.2 48 0 555.2 48 0
          560.2 48 0 565.2 48 0 570.2 48 0 575.2 48 0
          580.2 48 0 585.2 48 0 590.2 48 0 595.2 48 0
          600.2 48 0 605.2 48 0 610.2 48 0 615.2 48 0
          620.2 48 0 625.2 48 0 630.2 48 0 635.2 48 0
          640.2 48 0 645.2 48 0 650.2 48 0 655.2 48 0
          660.2 48 0 665.2 48 0 670.2 48 0 675.2 48 0
          680.2 48 0 685.2 48 0 690.2 48 0 695.2 48 0
          700.2 48 0 705.2 48 0 710.2 48 0 715.2 48 0
          720.2 48 0 725.2 48 0 730.2 48 0 735.2 48 0
          740.2 48 0 745.2 48 0 750.2 48 0 500.2 51 0
          505.2 51 0 510.2 51 0 515.2 51 0 520.2 51 0
          525.2 51 0 530.2 51 0 535.2 51 0 540.2 51 0
          545.2 51 0 550.2 51 0 555.2 51 0 560.2 51 0
          565.2 51 0 570.2 51 0 575.2 51 0 580.2 51 0
          585.2 51 0 590.2 51 0 595.2 51 0 600.2 51 0
          605.2 51 0 610.2 51 0 615.2 51 0 620.2 51 0
          625.2 51 0 630.2 51 0 635.2 51 0 640.2 51 0
          645.2 51 0 650.2 51 0 655.2 51 0 660.2 51 0
          665.2 51 0 670.2 51 0 675.2 51 0 680.2 51 0
          685.2 51 0 690.2 51 0 695.2 51 0 700.2 51 0
          705.2 51 0 710.2 51 0 715.2 51 0 720.2 51 0
          725.2 51 0 730.2 51 0 735.2 51 0 740.2 51 0
          745.2 51 0 750.2 51 0 500.2 54 0 505.2 54 0
          510.2 54 0 515.2 54 0 520.2 54 0 525.2 54 0
          530.2 54 0 535.2 54 0 540.2 54 0 545.2 54 0
          550.2 54 0 555.2 54 0 560.2 54 0 565.2 54 0
          570.2 54 0 575.2 54 0 580.2 54 0 585.2 54 0
          590.2 54 0 595.2 54 0 600.2 54 0 605.2 54 0
          610.2 54 0 615.2 54 0 620.2 54 0 625.2 54 0
          630.2 54 0 635.2 54 0 640.2 54 0 645.2 54 0
          650.2 54 0 655.2 54 0 660.2 54 0 665.2 54 0
          670.2 54 0 675.2 54 0 680.2 54 0 685.2 54 0
          690.2 54 0 695.2 54 0 700.2 54 0 705.2 54 0
          710.2 54 0 715.2 54 0 720.2 54 0 725.2 54 0
          730.2 54 0 735.2 54 0 740.2 54 0 745.2 54 0
          750.2 54 0 500.2 57 0 505.2 57 0 510.2 57 0
          515.2 57 0 520.2 57 0 525.2 57 0 530.2 57 0
          535.2 57 0 540.2 57 0 545.2 57 0 550.2 57 0
          555.2 57 0 560.2 57 0 565.2 57 0 570.2 57 0
          575.2 57 0 580.2 57 0 585.2 57 0 590.2 57 0
          595.2 57 0 600.2 57 0 605.2 57 0 610.2 57 0
          615.2 57 0 620.2 57 0 625.2 57 0 630.2 57 0
          635.2 57 0 640.2 57 0 645.2 57 0 650.2 57 0
          655.2 57 0 660.2 57 0 665.2 57 0 670.2 57 0
          675.2 57 0 680.2 57 0 685.2 57 0 690.2 57 0
          695.2 57 0 700.2 57 0 705.2 57 0 710.2 57 0
          715.2 57 0 720.2 57 0 725.2 57 0 730.2 57 0
          735.2 57 0 740.2 57 0 745.2 57 0 750.2 57 0
          500.2 60 0 505.2 60 0 510.2 60 0 515.2 60 0
          520.2 60 0 525.2 60 0 530.2 60 0 535.2 60 0
          540.2 60 0 545.2 60 0 550.2 60 0 555.2 60 0
          560.2 60 0 565.2 60 0 570.2 60 0 575.2 60 0
          580.2 60 0 585.2 60 0 590.2 60 0 595.2 60 0
          600.2 60 0 605.2 60 0 610.2 60 0 615.2 60 0
          620.2 60 0 625.2 60 0 630.2 60 0 635.2 60 0
          640.2 60 0 645.2 60 0 650.2 60 0 655.2 60 0
          660.2 60 0 665.2 60 0 670.2 60 0 675.2 60 0
          680.2 60 0 685.2 60 0 690.2 60 0 695.2 60 0
          700.2 60 0 705.2 60 0 710.2 60 0 715.2 60 0
          720.2 60 0 725.2 60 0 730.2 60 0 735.2 60 0
          740.2 60 0 745.2 60 0 750.2 60 0
        </DataArray>
      </Points>
      <Cells>
        <DataArray type="Int32" Name="connectivity" NumberOfComponents="1" format="ascii">
          0 1 3 2 1 4 5 3 4 6 7 5
          6 8 9 7 8 10 11 9 10 12 13 11
          12 14 15 13 14 16 17 15 16 18 19 17
          18 20 21 19 20 22 23 21 22 24 25 23
          24 26 27 25 26 28 29 27 28 30 31 29
          30 32 33 31 32 34 35 33 34 36 37 35
          36 38 39 37 38 40 41 39 40 42 43 41
          42 44 45 43 44 46 47 45 46 48 49 47
          48 50 51 49 50 52 53 51 52 54 55 53
          54 56 57 55 56 58 59 57 58 60 61 59
          60 62 63 61 62 64 65 63 64 66 67 65
          66 68 69 67 68 70 71 69 70 72 73 71
          72 74 75 73 74 76 77 75 76 78 79 77
          78 80 81 79 80 82 83 81 82 84 85 83
          84 86 87 85 86 88 89 87 88 90 91 89
          90 92 93 91 92 94 95 93 94 96 97 95
          96 98 99 97 98 100 101 99 2 3 103 102
          3 5 104 103 5 7 105 104 7 9 106 105
          9 11 107 106 11 13 108 107 13 15 109 108
          15 17 110 109 17 19 111 110 19 21 112 111
          21 23 113 112 23 25 114 113 25 27 115 114
          27 29 116 115 29 31 117 116 31 33 118 117
          33 35 119 118 35 37 120 119 37 39 121 120
          39 41 122 121 41 43 123 122 43 45 124 123
          45 47 125 124 47 49 126 125 49 51 127 126
          51 53 128 127 53 55 129 128 55 57 130 129
          57 59 131 130 59 61 132 131 61 63 133 132
          63 65 134 133 65 67 135 134 67 69 136 135
          69 71 137 136 71 73 138 137 73 75 139 138
          75 77 140 139 77 79 141 140 79 81 142 141
          81 83 143 142 83 85 144 143 85 87 145 144
          87 89 146 145 89 91 147 146 91 93 148 147
          93 95 149 148 95 97 150 149 97 99 151 150
          99 101 152 151 102 103 154 153 103 104 155 154
          104 105 156 155 105 106 157 156 106 107 158 157
          107 108 159 158 108 109 160 159 109 110 161 160
          110 111 162 161 111 112 163 162 112 113 164 163
          113 114 165 164 114 115 166 165 115 116 167 166
          116 117 168 167 117 118 169 168 118 119 170 169
          119 120 171 170 120 121 172 171 121 122 173 172
          122 123 174 173 123 124 175 174 124 125 176 175
          125 126 177 176 126 127 178 177 127 128 179 178
          128 129 180 179 129 130 181 180 130 131 182 181
          131 132 183 182 132 133 184 183 133 134 185 184
          134 135 186 185 135 136 187 186 136 137 188 187
          137 138 189 188 138 139 190 189 139 140 191 190
          140 141 192 191 141 142 193 192 142 143 194 193
          143 144 195 194 144 145 196 195 145 146 197 196