<?xml version="1.0"?>
<VTKFile type="UnstructuredGrid" version="0.1" byte_order="LittleEndian">
  <UnstructuredGrid>
    <Piece NumberOfCells="500" NumberOfPoints="546">
      <PointData Scalars="S_liq" Vectors="velocity_liq (m/s)">
        <DataArray type="Float32" Name="S_liq" NumberOfComponents="1" format="ascii">
          0.996932 0.996929 0.99684 0.996836 0.996925 0.996832 0.996922 0.996829 0.996918 0.996825 0.996915 0.996822
          0.996912 0.996818 0.996909 0.996814 0.996905 0.996811 0.996902 0.996808 0.996899 0.996804 0.996896 0.996801
          0.996893 0.996797 0.996889 0.996794 0.996886 0.996791 0.996883 0.996787 0.99688 0.996784 0.996877 0.996781
          0.996874 0.996777 0.996871 0.996774 0.996868 0.996771 0.996865 0.996768 0.996862 0.996764 0.996859 0.996761
          0.996856 0.996758 0.996854 0.996755 0.996838 0.996835 0.996831 0.996827 0.996824 0.99682 0.996816 0.996813
          0.996809 0.996806 0.996802 0.996799 0.996796 0.996792 0.996789 0.996786 0.996782 0.996779 0.996776 0.996772
          0.996769 0.996766 0.996763 0.99676 0.996756 0.996753 0.996839 0.996835 0.996831 0.996827 0.996824 0.99682
          0.996817 0.996813 0.99681 0.996806 0.996803 0.996799 0.996796 0.996792 0.996789 0.996786 0.996782 0.996779
          0.996776 0.996773 0.996769 0.996766 0.996763 0.99676 0.996757 0.996753 0.996839 0.996835 0.996831 0.996828
          0.996824 0.996821 0.996817 0.996813 0.99681 0.996807 0.996803 0.9968 0.996796 0.996793 0.996789 0.996786
          0.996783 0.996779 0.996776 0.996773 0.99677 0.996766 0.996763 0.99676 0.996757 0.996754 0.996839 0.996835
          0.996832 0.996828 0.996825 0.996821 0.996817 0.996814 0.99681 0.996807 0.996803 0.9968 0.996796 0.996793
          0.99679 0.996786 0.996783 0.99678 0.996776 0.996773 0.99677 0.996767 0.996763 0.99676 0.996757 0.996754
          0.99684 0.996836 0.996832 0.996828 0.996825 0.996821 0.996818 0.996814 0.996811 0.996807 0.996804 0.9968
          0.996797 0.996793 0.99679 0.996787 0.996783 0.99678 0.996777 0.996773 0.99677 0.996767 0.996764 0.99676
          0.996757 0.996754 0.99684 0.996836 0.996832 0.996829 0.996825 0.996822 0.996818 0.996814 0.996811 0.996807
          0.996804 0.9968 0.996797 0.996794 0.99679 0.996787 0.996783 0.99678 0.996777 0.996774 0.99677 0.996767
          0.996764 0.996761 0.996757 0.996754 0.99684 0.996836 0.996833 0.996829 0.996825 0.996822 0.996818 0.996815
          0.996811 0.996808 0.996804 0.996801 0.996797 0.996794 0.99679 0.996787 0.996784 0.99678 0.996777 0.996774
          0.996771 0.996767 0.996764 0.996761 0.996758 0.996754 0.996841 0.996837 0.996833 0.996829 0.996826 0.996822
          0.996819 0.996815 0.996811 0.996808 0.996804 0.996801 0.996798 0.996794 0.996791 0.996787 0.996784 0.996781
          0.996777 0.996774 0.996771 0.996767 0.996764 0.996761 0.996758 0.996755 0.996841 0.996837 0.996833 0.99683
          0.996826 0.996822 0.996819 0.996815 0.996812 0.996808 0.996805 0.996801 0.996798 0.996794 0.996791 0.996788
          0.996784 0.996781 0.996778 0.996774 0.996771 0.996768 0.996764 0.996761 0.996758 0.996755 0.996841 0.996837
          0.996834 0.99683 0.996826 0.996823 0.996819 0.996816 0.996812 0.996809 0.996805 0.996802 0.996798 0.996795
          0.996791 0.996788 0.996784 0.996781 0.996778 0.996774 0.996771 0.996768 0.996765 0.996762 0.996758 0.996755
          0.996842 0.996838 0.996834 0.99683 0.996827 0.996823 0.99682 0.996816 0.996812 0.996809 0.996805 0.996802
          0.996798 0.996795 0.996791 0.996788 0.996785 0.996781 0.996778 0.996775 0.996771 0.996768 0.996765 0.996762
          0.996759 0.996755 0.996842 0.996838 0.996834 0.996831 0.996827 0.996823 0.99682 0.996816 0.996813 0.996809
          0.996806 0.996802 0.996799 0.996795 0.996792 0.996788 0.996785 0.996782 0.996778 0.996775 0.996772 0.996768
          0.996765 0.996762 0.996759 0.996756 0.996842 0.996839 0.996835 0.996831 0.996827 0.996824 0.99682 0.996817
          0.996813 0.996809 0.996806 0.996802 0.996799 0.996795 0.996792 0.996789 0.996785 0.996782 0.996779 0.996775
          0.996772 0.996769 0.996765 0.996762 0.996759 0.996756 0.996843 0.996839 0.996835 0.996831 0.996828 0.996824
          0.996821 0.996817 0.996813 0.99681 0.996806 0.996803 0.996799 0.996796 0.996792 0.996789 0.996786 0.996782
          0.996779 0.996776 0.996772 0.996769 0.996766 0.996762 0.996759 0.996756 0.996843 0.996839 0.996836 0.996832
          0.996828 0.996824 0.996821 0.996817 0.996814 0.99681 0.996807 0.996803 0.9968 0.996796 0.996793 0.996789
          0.996786 0.996782 0.996779 0.996776 0.996772 0.996769 0.996766 0.996763 0.996759 0.996756 0.996843 0.99684
          0.996836 0.996832 0.996828 0.996825 0.996821 0.996818 0.996814 0.99681 0.996807 0.996803 0.9968 0.996796
          0.996793 0.996789 0.996786 0.996783 0.996779 0.996776 0.996773 0.996769 0.996766 0.996763 0.99676 0.996756
          0.996844 0.99684 0.996836 0.996832 0.996829 0.996825 0.996821 0.996818 0.996814 0.996811 0.996807 0.996804
          0.9968 0.996797 0.996793 0.99679 0.996786 0.996783 0.99678 0.996776 0.996773 0.99677 0.996766 0.996763
          0.99676 0.996757 0.996844 0.99684 0.996837 0.996833 0.996829 0.996825 0.996822 0.996818 0.996815 0.996811
          0.996807 0.996804 0.9968 0.996797 0.996793 0.99679 0.996787 0.996783 0.99678 0.996777 0.996773 0.99677
          0.996767 0.996763 0.99676 0.996757 0.996745 0.996741 0.996737 0.996733 0.996729 0.996725 0.996721 0.996717
          0.996713 0.996709 0.996705 0.996702 0.996698 0.996694 0.99669 0.996687 0.996683 0.996679 0.996676 0.996672
          0.996668 0.996665 0.996661 0.996658 0.996654 0.996651
        </DataArray>
        <DataArray type="Float32" Name="p_liq" NumberOfComponents="1" format="ascii">
          2.08292e+07 2.08251e+07 2.07998e+07 2.07957e+07 2.08211e+07 2.07917e+07 2.08171e+07 2.07877e+07 2.08131e+07 2.07837e+07 2.08092e+07 2.07797e+07
          2.08052e+07 2.07758e+07 2.08013e+07 2.07719e+07 2.07975e+07 2.07681e+07 2.07937e+07 2.07642e+07 2.07898e+07 2.07604e+07 2.07861e+07 2.07567e+07
          2.07823e+07 2.07529e+07 2.07786e+07 2.07492e+07 2.07749e+07 2.07455e+07 2.07712e+07 2.07418e+07 2.07676e+07 2.07382e+07 2.0764e+07 2.07346e+07
          2.07604e+07 2.0731e+07 2.07568e+07 2.07274e+07 2.07533e+07 2.07239e+07 2.07498e+07 2.07203e+07 2.07463e+07 2.07168e+07 2.07428e+07 2.07134e+07
          2.07393e+07 2.07099e+07 2.07359e+07 2.07065e+07 2.07704e+07 2.07663e+07 2.07623e+07 2.07582e+07 2.07543e+07 2.07503e+07 2.07464e+07 2.07425e+07
          2.07386e+07 2.07348e+07 2.0731e+07 2.07272e+07 2.07235e+07 2.07198e+07 2.07161e+07 2.07124e+07 2.07088e+07 2.07051e+07 2.07015e+07 2.0698e+07
          2.06944e+07 2.06909e+07 2.06874e+07 2.0684e+07 2.06805e+07 2.06771e+07 2.0741e+07 2.07369e+07 2.07328e+07 2.07288e+07 2.07248e+07 2.07209e+07
          2.0717e+07 2.07131e+07 2.07092e+07 2.07054e+07 2.07016e+07 2.06978e+07 2.06941e+07 2.06903e+07 2.06866e+07 2.0683e+07 2.06793e+07 2.06757e+07
          2.06721e+07 2.06686e+07 2.0665e+07 2.06615e+07 2.0658e+07 2.06545e+07 2.06511e+07 2.06477e+07 2.07115e+07 2.07075e+07 2.07034e+07 2.06994e+07
          2.06954e+07 2.06915e+07 2.06876e+07 2.06837e+07 2.06798e+07 2.0676e+07 2.06722e+07 2.06684e+07 2.06646e+07 2.06609e+07 2.06572e+07 2.06536e+07
          2.06499e+07 2.06463e+07 2.06427e+07 2.06391e+07 2.06356e+07 2.06321e+07 2.06286e+07 2.06251e+07 2.06217e+07 2.06182e+07 2.06821e+07 2.0678e+07
          2.0674e+07 2.067e+07 2.0666e+07 2.06621e+07 2.06581e+07 2.06542e+07 2.06504e+07 2.06466e+07 2.06428e+07 2.0639e+07 2.06352e+07 2.06315e+07
          2.06278e+07 2.06241e+07 2.06205e+07 2.06169e+07 2.06133e+07 2.06097e+07 2.06062e+07 2.06027e+07 2.05992e+07 2.05957e+07 2.05922e+07 2.05888e+07
          2.06527e+07 2.06486e+07 2.06446e+07 2.06406e+07 2.06366e+07 2.06326e+07 2.06287e+07 2.06248e+07 2.0621e+07 2.06171e+07 2.06133e+07 2.06096e+07
          2.06058e+07 2.06021e+07 2.05984e+07 2.05947e+07 2.05911e+07 2.05875e+07 2.05839e+07 2.05803e+07 2.05768e+07 2.05732e+07 2.05697e+07 2.05663e+07
          2.05628e+07 2.05594e+07 2.06233e+07 2.06192e+07 2.06152e+07 2.06112e+07 2.06072e+07 2.06032e+07 2.05993e+07 2.05954e+07 2.05916e+07 2.05877e+07
          2.05839e+07 2.05801e+07 2.05764e+07 2.05727e+07 2.0569e+07 2.05653e+07 2.05617e+07 2.0558e+07 2.05544e+07 2.05509e+07 2.05473e+07 2.05438e+07
          2.05403e+07 2.05369e+07 2.05334e+07 2.053e+07 2.05939e+07 2.05898e+07 2.05858e+07 2.05817e+07 2.05778e+07 2.05738e+07 2.05699e+07 2.0566e+07
          2.05621e+07 2.05583e+07 2.05545e+07 2.05507e+07 2.0547e+07 2.05432e+07 2.05396e+07 2.05359e+07 2.05322e+07 2.05286e+07 2.0525e+07 2.05215e+07
          2.05179e+07 2.05144e+07 2.05109e+07 2.05074e+07 2.0504e+07 2.05006e+07 2.05645e+07 2.05604e+07 2.05563e+07 2.05523e+07 2.05483e+07 2.05444e+07
          2.05405e+07 2.05366e+07 2.05327e+07 2.05289e+07 2.05251e+07 2.05213e+07 2.05176e+07 2.05138e+07 2.05101e+07 2.05065e+07 2.05028e+07 2.04992e+07
          2.04956e+07 2.0492e+07 2.04885e+07 2.0485e+07 2.04815e+07 2.0478e+07 2.04746e+07 2.04711e+07 2.0535e+07 2.0531e+07 2.05269e+07 2.05229e+07
          2.05189e+07 2.0515e+07 2.05111e+07 2.05072e+07 2.05033e+07 2.04995e+07 2.04957e+07 2.04919e+07 2.04881e+07 2.04844e+07 2.04807e+07 2.0477e+07
          2.04734e+07 2.04698e+07 2.04662e+07 2.04626e+07 2.04591e+07 2.04556e+07 2.04521e+07 2.04486e+07 2.04451e+07 2.04417e+07 2.05056e+07 2.05016e+07
          2.04975e+07 2.04935e+07 2.04895e+07 2.04856e+07 2.04816e+07 2.04777e+07 2.04739e+07 2.047e+07 2.04662e+07 2.04625e+07 2.04587e+07 2.0455e+07
          2.04513e+07 2.04476e+07 2.0444e+07 2.04404e+07 2.04368e+07 2.04332e+07 2.04297e+07 2.04261e+07 2.04226e+07 2.04192e+07 2.04157e+07 2.04123e+07
          2.04762e+07 2.04721e+07 2.04681e+07 2.04641e+07 2.04601e+07 2.04561e+07 2.04522e+07 2.04483e+07 2.04445e+07 2.04406e+07 2.04368e+07 2.0433e+07
[...]
      <CellData Scalars="process rank">
        <DataArray type="Float32" Name="process rank" NumberOfComponents="1" format="ascii">
          5 5 5 5 5 5 5 5 5 5 5 5
          5 5 5 5 5 5 5 5 5 5 5 5
          5 5 5 5 5 5 5 5 5 5 5 5
          5 5 5 5 5 5 5 5 5 5 5 5
          5 5 5 5 5 5 5 5 5 5 5 5
          5 5 5 5 5 5 5 5 5 5 5 5
          5 5 5 5 5 5 5 5 5 5 5 5
          5 5 5 5 5 5 5 5 5 5 5 5
          5 5 5 5 5 5 5 5 5 5 5 5
          5 5 5 5 5 5 5 5 5 5 5 5
          5 5 5 5 5 5 5 5 5 5 5 5
          5 5 5 5 5 5 5 5 5 5 5 5
          5 5 5 5 5 5 5 5 5 5 5 5
          5 5 5 5 5 5 5 5 5 5 5 5
          5 5 5 5 5 5 5 5 5 5 5 5
          5 5 5 5 5 5 5 5 5 5 5 5
          5 5 5 5 5 5 5 5 5 5 5 5
          5 5 5 5 5 5 5 5 5 5 5 5
          5 5 5 5 5 5 5 5 5 5 5 5
          5 5 5 5 5 5 5 5 5 5 5 5
          5 5 5 5 5 5 5 5 5 5 5 5
          5 5 5 5 5 5 5 5 5 5 5 5
          5 5 5 5 5 5 5 5 5 5 5 5
          5 5 5 5 5 5 5 5 5 5 5 5
          5 5 5 5 5 5 5 5 5 5 5 5
          5 5 5 5 5 5 5 5 5 5 5 5
          5 5 5 5 5 5 5 5 5 5 5 5
          5 5 5 5 5 5 5 5 5 5 5 5
          5 5 5 5 5 5 5 5 5 5 5 5
          5 5 5 5 5 5 5 5 5 5 5 5
          5 5 5 5 5 5 5 5 5 5 5 5
          5 5 5 5 5 5 5 5 5 5 5 5
          5 5 5 5 5 5 5 5 5 5 5 5
          5 5 5 5 5 5 5 5 5 5 5 5
          5 5 5 5 5 5 5 5 5 5 5 5
          5 5 5 5 5 5 5 5 5 5 5 5
          5 5 5 5 5 5 5 5 5 5 5 5
          5 5 5 5 5 5 5 5 5 5 5 5
          5 5 5 5 5 5 5 5 5 5 5 5
          5 5 5 5 5 5 5 5 5 5 5 5
          5 5 5 5 5 5 5 5 5 5 5 5
          5 5 5 5 5 5 5 5
        </DataArray>
      </CellData>
      <Points>
        <DataArray type="Float32" Name="Coordinates" NumberOfComponents="3" format="ascii">
          625.2 0 0 630.2 0 0 625.2 3 0 630.2 3 0
          635.2 0 0 635.2 3 0 640.2 0 0 640.2 3 0
          645.2 0 0 645.2 3 0 650.2 0 0 650.2 3 0
          655.2 0 0 655.2 3 0 660.2 0 0 660.2 3 0
          665.2 0 0 665.2 3 0 670.2 0 0 670.2 3 0
          675.2 0 0 675.2 3 0 680.2 0 0 680.2 3 0
          685.2 0 0 685.2 3 0 690.2 0 0 690.2 3 0
          695.2 0 0 695.2 3 0 700.2 0 0 700.2 3 0
          705.2 0 0 705.2 3 0 710.2 0 0 710.2 3 0
          715.2 0 0 715.2 3 0 720.2 0 0 720.2 3 0
          725.2 0 0 725.2 3 0 730.2 0 0 730.2 3 0
          735.2 0 0 735.2 3 0 740.2 0 0 740.2 3 0
          745.2 0 0 745.2 3 0 750.2 0 0 750.2 3 0
          625.2 6 0 630.2 6 0 635.2 6 0 640.2 6 0
          645.2 6 0 650.2 6 0 655.2 6 0 660.2 6 0
          665.2 6 0 670.2 6 0 675.2 6 0 680.2 6 0
          685.2 6 0 690.2 6 0 695.2 6 0 700.2 6 0
          705.2 6 0 710.2 6 0 715.2 6 0 720.2 6 0
          725.2 6 0 730.2 6 0 735.2 6 0 740.2 6 0
          745.2 6 0 750.2 6 0 625.2 9 0 630.2 9 0
          635.2 9 0 640.2 9 0 645.2 9 0 650.2 9 0
          655.2 9 0 660.2 9 0 665.2 9 0 670.2 9 0
          675.2 9 0 680.2 9 0 685.2 9 0 690.2 9 0
          695.2 9 0 700.2 9 0 705.2 9 0 710.2 9 0
          715.2 9 0 720.2 9 0 725.2 9 0 730.2 9 0
          735.2 9 0 740.2 9 0 745.2 9 0 750.2 9 0
          625.2 12 0 630.2 12 0 635.2 12 0 640.2 12 0
          645.2 12 0 650.2 12 0 655.2 12 0 660.2 12 0
          665.2 12 0 670.2 12 0 675.2 12 0 680.2 12 0
          685.2 12 0 690.2 12 0 695.2 12 0 700.2 12 0
          705.2 12 0 710.2 12 0 715.2 12 0 720.2 12 0
          725.2 12 0 730.2 12 0 735.2 12 0 740.2 12 0
          745.2 12 0 750.2 12 0 625.2 15 0 630.2 15 0
          635.2 15 0 640.2 15 0 645.2 15 0 650.2 15 0
          655.2 15 0 660.2 15 0 665.2 15 0 670.2 15 0
          675.2 15 0 680.2 15 0 685.2 15 0 690.2 15 0
          695.2 15 0 700.2 15 0 705.2 15 0 710.2 15 0
          715.2 15 0 720.2 15 0 725.2 15 0 730.2 15 0
          735.2 15 0 740.2 15 0 745.2 15 0 750.2 15 0
          625.2 18 0 630.2 18 0 635.2 18 0 640.2 18 0
          645.2 18 0 650.2 18 0 655.2 18 0 660.2 18 0
          665.2 18 0 670.2 18 0 675.2 18 0 680.2 18 0
          685.2 18 0 690.2 18 0 695.2 18 0 700.2 18 0
          705.2 18 0 710.2 18 0 715.2 18 0 720.2 18 0
          725.2 18 0 730.2 18 0 735.2 18 0 740.2 18 0
          745.2 18 0 750.2 18 0 625.2 21 0 630.2 21 0
          635.2 21 0 640.2 21 0 645.2 21 0 650.2 21 0
          655.2 21 0 660.2 21 0 665.2 21 0 670.2 21 0
          675.2 21 0 680.2 21 0 685.2 21 0 690.2 21 0
          695.2 21 0 700.2 21 0 705.2 21 0 710.2 21 0
          715.2 21 0 720.2 21 0 725.2 21 0 730.2 21 0
          735.2 21 0 740.2 21 0 745.2 21 0 750.2 21 0
          625.2 24 0 630.2 24 0 635.2 24 0 640.2 24 0
          645.2 24 0 650.2 24 0 655.2 24 0 660.2 24 0
          665.2 24 0 670.2 24 0 675.2 24 0 680.2 24 0
          685.2 24 0 690.2 24 0 695.2 24 0 700.2 24 0
          705.2 24 0 710.2 24 0 715.2 24 0 720.2 24 0
          725.2 24 0 730.2 24 0 735.2 24 0 740.2 24 0
          745.2 24 0 750.2 24 0 625.2 27 0 630.2 27 0
          635.2 27 0 640.2 27 0 645.2 27 0 650.2 27 0
          655.2 27 0 660.2 27 0 665.2 27 0 670.2 27 0
          675.2 27 0 680.2 27 0 685.2 27 0 690.2 27 0
          695.2 27 0 700.2 27 0 705.2 27 0 710.2 27 0
          715.2 27 0 720.2 27 0 725.2 27 0 730.2 27 0
          735.2 27 0 740.2 27 0 745.2 27 0 750.2 27 0
          625.2 30 0 630.2 30 0 635.2 30 0 640.2 30 0
          645.2 30 0 650.2 30 0 655.2 30 0 660.2 30 0
          665.2 30 0 670.2 30 0 675.2 30 0 680.2 30 0
          685.2 30 0 690.2 30 0 695.2 30 0 700.2 30 0
          705.2 30 0 710.2 30 0 715.2 30 0 720.2 30 0
          725.2 30 0 730.2 30 0 735.2 30 0 740.2 30 0
          745.2 30 0 750.2 30 0 625.2 33 0 630.2 33 0
          635.2 33 0 640.2 33 0 645.2 33 0 650.2 33 0
          655.2 33 0 660.2 33 0 665.2 33 0 670.2 33 0
          675.2 33 0 680.2 33 0 685.2 33 0 690.2 33 0
          695.2 33 0 700.2 33 0 705.2 33 0 710.2 33 0
          715.2 33 0 720.2 33 0 725.2 33 0 730.2 33 0
          735.2 33 0 740.2 33 0 745.2 33 0 750.2 33 0
          625.2 36 0 630.2 36 0 635.2 36 0 640.2 36 0
          645.2 36 0 650.2 36 0 655.2 36 0 660.2 36 0
          665.2 36 0 670.2 36 0 675.2 36 0 680.2 36 0
          685.2 36 0 690.2 36 0 695.2 36 0 700.2 36 0
          705.2 36 0 710.2 36 0 715.2 36 0 720.2 36 0
          725.2 36 0 730.2 36 0 735.2 36 0 740.2 36 0
          745.2 36 0 750.2 36 0 625.2 39 0 630.2 39 0
          635.2 39 0 640.2 39 0 645.2 39 0 650.2 39 0
          655.2 39 0 660.2 39 0 665.2 39 0 670.2 39 0
          675.2 39 0 680.2 39 0 685.2 39 0 690.2 39 0
          695.2 39 0 700.2 39 0 705.2 39 0 710.2 39 0
          715.2 39 0 720.2 39 0 725.2 39 0 730.2 39 0
          735.2 39 0 740.2 39 0 745.2 39 0 750.2 39 0
          625.2 42 0 630.2 42 0 635.2 42 0 640.2 42 0
          645.2 42 0 650.2 42 0 655.2 42 0 660.2 42 0
          665.2 42 0 670.2 42 0 675.2 42 0 680.2 42 0
          685.2 42 0 690.2 42 0 695.2 42 0 700.2 42 0
          705.2 42 0 710.2 42 0 715.2 42 0 720.2 42 0
          725.2 42 0 730.2 42 0 735.2 42 0 740.2 42 0
          745.2 42 0 750.2 42 0 625.2 45 0 630.2 45 0
          635.2 45 0 640.2 45 0 645.2 45 0 650.2 45 0
          655.2 45 0 660.2 45 0 665.2 45 0 670.2 45 0
          675.2 45 0 680.2 45 0 685.2 45 0 690.2 45 0
          695.2 45 0 700.2 45 0 705.2 45 0 710.2 45 0
          715.2 45 0 720.2 45 0 725.2 45 0 730.2 45 0
          735.2 45 0 740.2 45 0 745.2 45 0 750.2 45 0
          625.2 48 0 630.2 48 0 635.2 48 0 640.2 48 0
          645.2 48 0 650.2 48 0 655.2 48 0 660.2 48 0
          665.2 48 0 670.2 48 0 675.2 48 0 680.2 48 0
          685.2 48 0 690.2 48 0 695.2 48 0 700.2 48 0
          705.2 48 0 710.2 48 0 715.2 48 0 720.2 48 0
          725.2 48 0 730.2 48 0 735.2 48 0 740.2 48 0
          745.2 48 0 750.2 48 0 625.2 51 0 630.2 51 0
          635.2 51 0 640.2 51 0 645.2 51 0 650.2 51 0
          655.2 51 0 660.2 51 0 665.2 51 0 670.2 51 0
          675.2 51 0 680.2 51 0 685.2 51 0 690.2 51 0
          695.2 51 0 700.2 51 0 705.2 51 0 710.2 51 0
          715.2 51 0 720.2 51 0 725.2 51 0 730.2 51 0
          735.2 51 0 740.2 51 0 745.2 51 0 750.2 51 0
          625.2 54 0 630.2 54 0 635.2 54 0 640.2 54 0
          645.2 54 0 650.2 54 0 655.2 54 0 660.2 54 0
          665.2 54 0 670.2 54 0 675.2 54 0 680.2 54 0
          685.2 54 0 690.2 54 0 695.2 54 0 700.2 54 0
          705.2 54 0 710.2 54 0 715.2 54 0 720.2 54 0
          725.2 54 0 730.2 54 0 735.2 54 0 740.2 54 0
          745.2 54 0 750.2 54 0 625.2 57 0 630.2 57 0
          635.2 57 0 640.2 57 0 645.2 57 0 650.2 57 0
          655.2 57 0 660.2 57 0 665.2 57 0 670.2 57 0
          675.2 57 0 680.2 57 0 685.2 57 0 690.2 57 0
          695.2 57 0 700.2 57 0 705.2 57 0 710.2 57 0
          715.2 57 0 720.2 57 0 725.2 57 0 730.2 57 0
          735.2 57 0 740.2 57 0 745.2 57 0 750.2 57 0
          625.2 60 0 630.2 60 0 635.2 60 0 640.2 60 0
          645.2 60 0 650.2 60 0 655.2 60 0 660.2 60 0
          665.2 60 0 670.2 60 0 675.2 60 0 680.2 60 0
          685.2 60 0 690.2 60 0 695.2 60 0 700.2 60 0
          705.2 60 0 710.2 60 0 715.2 60 0 720.2 60 0
          725.2 60 0 730.2 60 0 735.2 60 0 740.2 60 0
          745.2 60 0 750.2 60 0
        </DataArray>
      </Points>
      <Cells>
        <DataArray type="Int32" Name="connectivity" NumberOfComponents="1" format="ascii">
          0 1 3 2 1 4 5 3 4 6 7 5
          6 8 9 7 8 10 11 9 10 12 13 11
          12 14 15 13 14 16 17 15 16 18 19 17
          18 20 21 19 20 22 23 21 22 24 25 23
          24 26 27 25 26 28 29 27 28 30 31 29
          30 32 33 31 32 34 35 33 34 36 37 35
          36 38 39 37 38 40 41 39 40 42 43 41
          42 44 45 43 44 46 47 45 46 48 49 47
          48 50 51 49 2 3 53 52 3 5 54 53
          5 7 55 54 7 9 56 55 9 11 57 56
          11 13 58 57 13 15 59 58 15 17 60 59
          17 19 61 60 19 21 62 61 21 23 63 62
          23 25 64 63 25 27 65 64 27 29 66 65
          29 31 67 66 31 33 68 67 33 35 69 68
          35 37 70 69 37 39 71 70 39 41 72 71
          41 43 73 72 43 45 74 73 45 47 75 74
          47 49 76 75 49 51 77 76 52 53 79 78
          53 54 80 79 54 55 81 80 55 56 82 81
          56 57 83 82 57 58 84 83 58 59 85 84
          59 60 86 85 60 61 87 86 61 62 88 87
          62 63 89 88 63 64 90 89 64 65 91 90
          65 66 92 91 66 67 93 92 67 68 94 93
          68 69 95 94 69 70 96 95 70 71 97 96
          71 72 98 97 72 73 99 98 73 74 100 99
          74 75 101 100 75 76 102 101 76 77 103 102
          78 79 105 104 79 80 106 105 80 81 107 106
          81 82 108 107 82 83 109 108 83 84 110 109
          84 85 111 110 85 86 112 111 86 87 113 112
          87 88 114 113 88 89 115 114 89 90 116 115
          90 91 117 116 91 92 118 117 92 93 119 118
          93 94 120 119 94 95 121 120 95 96 122 121
          96 97 123 122 97 98 124 123 98 99 125 124
          99 100 126 125 100 101 127 126 101 102 128 127
          102 103 129 128 104 105 131 130 105 106 132 131
          106 107 133 132 107 108 134 133 108 109 135 134
          109 110 136 135 110 111 137 136 111 112 138 137
          112 113 139 138 113 114 140 139 114 115 141 140
          115 116 142 141 116 117 143 142 117 118 144 143
          118 119 145 144 119 120 146 145 120 121 147 146
          121 122 148 147 122 123 149 148 123 124 150 149
          124 125 151 150 125 126 152 151 126 127 153 152
          127 128 154 153 128 129 155 154 130 131 157 156
          131 132 158 157 132 133 159 158 133 134 160 159
          134 135 161 160 135 136 162 161 136 137 163 162
          137 138 164 163 138 139 165 164 139 140 166 165
          140 141 167 166 141 142 168 167 142 143 169 168
          143 144 170 169 144 145 171 170 145 146 172 171
          146 147 173 172 147 148 174 173 148 149 175 174
          149 150 176 175 150 151 177 176 151 152 178 177
          152 153 179 178 153 154 180 179 154 155 181 180
          156 157 183 182 157 158 184 183 158 159 185 184
          159 160 186 185 160 161 187 186 161 162 188 187
          162 163 189 188 163 164 190 189 164 165 191 190
          165 166 192 191 166 167 193 192 167 168 194 193
          168 169 195 194 169 170 196 195 170 171 197 196
          171 172 198 197 172 173 199 198 173 174 200 199
          174 175 201 200 175 176 202 201 176 177 203 202
          177 178 204 203 178 179 205 204 179 180 206 205
          180 181 207 206 182 183 209 208 183 184 210 209
          184 185 211 210 185 186 212 211 186 187 213 212
          187 188 214 213 188 189 215 214 189 190 216 215
          190 191 217 216 191 192 218 217 192 193 219 218
          193 194 220 219 194 195 221 220 195 196 222 221
          196 197 223 222 197 198 224 223 198 199 225 224
          199 200 226 225 200 201 227 226 201 202 228 227
          202 203 229 228 203 204 230 229 204 205 231 230
          205 206 232 231 206 207 233 232 208 209 235 234
          209 210 236 235 210 211 237 236 211 212 238 237
          212 213 239 238 213 214 240 239 214 215 241 240
          215 216 242 241 216 217 243 242 217 218 244 243
          218 219 245 244 219 220 246 245 220 221 247 246
          221 222 248 247 222 223 249 248 223 224 250 249
          224 225 251 250 225 226 252 251 226 227 253 252
          227 228 254 253 228 229 255 254 229 230 256 255
          230 231 257 256 231 232 258 257 232 233 259 258
          234 235 261 260 235 236 262 261 236 237 263 262
          237 238 264 263 238 239 265 264 239 240 266 265
          240 241 267 266 241 242 268 267 242 243 269 268
          243 244 270 269 244 245 271 270 245 246 272 271
          246 247 273 272 247 248 274 273 248 249 275 274
          249 250 276 275 250 251 277 276 251 252 278 277
          252 253 279 278 253 254 280 279 254 255 281 280
          255 256 282 281 256 257 283 282 257 258 284 283
          258 259 285 284 260 261 287 286 261 262 288 287
          262 263 289 288 263 264 290 289 264 265 291 290
          265 266 292 291 266 267 293 292 267 268 294 293
          268 269 295 294 269 270 296 295 270 271 297 296
          271 272 298 297 272 273 299 298 273 274 300 299
          274 275 301 300 275 276 302 301 276 277 303 302
          277 278 304 303 278 279 305 304 279 280 306 305
          280 281 307 306 281 282 308 307 282 283 309 308
          283 284 310 309 284 285 311 310 286 287 313 312
          287 288 314 313 288 289 315 314 289 290 316 315
          290 291 317 316 291 292 318 317 292 293 319 318
          293 294 320 319 294 295 321 320 295 296 322 321
          296 297 323 322 297 298 324 323 298 299 325 324
          299 300 326 325 300 301 327 326 301 302 328 327
          302 303 329 328 303 304 330 329 304 305 331 330
          305 306 332 331 306 307 333 332 307 308 334 333
          308 309 335 334 309 310 336 335 310 311 337 336
          312 313 339 338 313 314 340 339 314 315 341 340
          315 316 342 341 316 317 343 342 317 318 344 343
          318 319 345 344 319 320 346 345 320 321 347 346
          321 322 348 347 322 323 349 348 323 324 350 349
          324 325 351 350 325 326 352 351 326 327 353 352
          327 328 354 353 328 329 355 354 329 330 356 355
          330 331 357 356 331 332 358 357 332 333 359 358
          333 334 360 359 334 335 361 360 335 336 362 361
          336 337 363 362 338 339 365 364 339 340 366 365
          340 341 367 366 341 342 368 367 342 343 369 368
          343 344 370 369 344 345 371 370 345 346 372 371
          346 347 373 372 347 348 374 373 348 349 375 374
          349 350 376 375 350 351 377 376 351 352 378 377
          352 353 379 378 353 354 380 379 354 355 381 380
          355 356 382 381 356 357 383 382 357 358 384 383
          358 359 385 384 359 360 386 385 360 361 387 386
          361 362 388 387 362 363 389 388 364 365 391 390
          365 366 392 391 366 367 393 392 367 368 394 393
          368 369 395 394 369 370 396 395 370 371 397 396
          371 372 398 397 372 373 399 398 373 374 400 399
          374 375 401 400 375 376 402 401 376 377 403 402
          377 378 404 403 378 379 405 404 379 380 406 405
          380 381 407 406 381 382 408 407 382 383 409 408
          383 384 410 409 384 385 411 410 385 386 412 411
          386 387 413 412 387 388 414 413 388 389 415 414
          390 391 417 416 391 392 418 417 392 393 419 418
          393 394 420 419 394 395 421 420 395 396 422 421
          396 397 423 422 397 398 424 423 398 399 425 424
          399 400 426 425 400 401 427 426 401 402 428 427
          402 403 429 428 403 404 430 429 404 405 431 430
          405 406 432 431 406 407 433 432 407 408 434 433
          408 409 435 434 409 410 436 435 410 411 437 436
          411 412 438 437 412 413 439 438 413 414 440 439
          414 415 441 440 416 417 443 442 417 418 444 443
          418 419 445 444 419 420 446 445 420 421 447 446
          421 422 448 447 422 423 449 448 423 424 450 449
          424 425 451 450 425 426 452 451 426 427 453 452
          427 428 454 453 428 429 455 454 429 430 456 455
          430 431 457 456 431 432 458 457 432 433 459 458
          433 434 460 459 434 435 461 460 435 436 462 461
          436 437 463 462 437 438 464 463 438 439 465 464
          439 440 466 465 440 441 467 466 442 443 469 468
          443 444 470 469 444 445 471 470 445 446 472 471
          446 447 473 472 447 448 474 473 448 449 475 474
          449 450 476 475 450 451 477 476 451 452 478 477
          452 453 479 478 453 454 480 479 454 455 481 480
          455 456 482 481 456 457 483 482 457 458 484 483
          458 459 485 484 459 460 486 485 460 461 487 486
          461 462 488 487 462 463 489 488 463 464 490 489
          464 465 491 490 465 466 492 491 466 467 493 492
          468 469 495 494 469 470 496 495 470 471 497 496
          471 472 498 497 472 473 499 498 473 474 500 499
          474 475 501 500 475 476 502 501 476 477 503 502
          477 478 504 503 478 479 505 504 479 480 506 505
          480 481 507 506 481 482 508 507 482 483 509 508
          483 484 510 509 484 485 511 510 485 486 512 511
          486 487 513 512 487 488 514 513 488 489 515 514
          489 490 516 515 490 491 517 516 491 492 518 517
          492 493 519 518 494 495 521 520 495 496 522 521
          496 497 523 522 497 498 524 523 498 499 525 524
          499 500 526 525 500 501 527 526 501 502 528 527
          502 503 529 528 503 504 530 529 504 505 531 530
          505 506 532 531 506 507 533 532 507 508 534 533
          508 509 535 534 509 510 536 535 510 511 537 536
          511 512 538 537 512 513 539 538 513 514 540 539
          514 515 541 540 515 516 542 541 516 517 543 542
          517 518 544 543 518 519 545 544
        </DataArray>
        <DataArray type="Int32" Name="offsets" NumberOfComponents="1" format="ascii">
          4 8 12 16 20 24 28 32 36 40 44 48
          52 56 60 64 68 72 76 80 84 88 92 96
          100 104 108 112 116 120 124 128 132 136 140 144
          148 152 156 160 164 168 172 176 180 184 188 192
          196 200 204 208 212 216 220 224 228 232 236 240
          244 248 252 256 260 264 268 272 276 280 284 288
          292 296 300 304 308 312 316 320 324 328 332 336
          340 344 348 352 356 360 364 368 372 376 380 384
          388 392 396 400 404 408 412 416 420 424 428 432
          436 440 444 448 452 456 460 464 468 472 476 480
          484 488 492 496 500 504 508 512 516 520 524 528
          532 536 540 544 548 552 556 560 564 568 572 576
          580 584 588 592 596 600 604 608 612 616 620 624
          628 632 636 640 644 648 652 656 660 664 668 672
          676 680 684 688 692 696 700 704 708 712 716 720
          724 728 732 736 740 744 748 752 756 760 764 768
          772 776 780 784 788 792 796 800 804 808 812 816
          820 824 828 832 836 840 844 848 852 856 860 864
          868 872 876 880 884 888 892 896 900 904 908 912
          916 920 924 928 932 936 940 944 948 952 956 960
          964 968 972 976 980 984 988 992 996 1000 1004 1008
          1012 1016 1020 1024 1028 1032 1036 1040 1044 1048 1052 1056
          1060 1064 1068 1072 1076 1080 1084 1088 1092 1096 1100 1104
          1108 1112 1116 1120 1124 1128 1132 1136 1140 1144 1148 1152