<?xml version="1.0"?>
<VTKFile type="UnstructuredGrid" version="0.1" byte_order="LittleEndian">
  <UnstructuredGrid>
    <Piece NumberOfCells="1000" NumberOfPoints="1071">
      <PointData Scalars="S_liq" Vectors="velocity_liq (m/s)">
        <DataArray type="Float32" Name="S_liq" NumberOfComponents="1" format="ascii">
          0.999599 0.999595 1 1 0.999592 1 0.999588 1 0.999585 1 0.999581 1
          0.999577 1 0.999573 1 0.999569 1 0.999565 1 0.999561 1 0.999556 1
          0.999552 1 0.999547 1 0.999543 1 0.999538 1 0.999533 1 0.999527 1
          0.999522 1 0.999517 1 0.999511 1 0.999505 1 0.999499 1 0.999493 1
          0.999487 1 0.999481 1 0.999474 1 0.999468 1 0.999461 1 0.999455 1
          0.999448 1 0.999441 1 0.999435 1 0.999428 1 0.999421 1 0.999415 1
          0.999408 1 0.999402 1 0.999397 1 0.999393 1 0.999391 1 0.999393 1
          0.999401 1 0.999417 1 0.999448 1 0.999504 1 0.999624 1 0.999912 1
          1 1 1 1 0.999999 0.999999 1 1 1 1 1 1
          1 1 1 1 1 1 1 1 1 1 1 1
          1 1 1 1 1 1 1 1 1 1 1 1
          1 1 1 1 1 1 1 1 1 1 1 1
          1 1 1 1 1 1 1 0.999998 0.999999 1 1 1
          1 1 1 1 1 1 1 1 1 1 1 1
          1 1 1 1 1 1 1 1 1 1 1 1
          1 1 1 1 1 0.999999 0.999998 0.999998 0.999998 0.999998 0.999998 0.999998
          0.999998 0.999998 0.999998 0.999998 0.999998 0.999998 0.999999 0.999999 0.999999 0.999999 0.999999 0.999999
          1 1 1 1 1 1 1 1 1 1 1 1
          1 1 1 1 1 1 1 1 1 1 1 1
          1 1 1 1 1 1 1 0.999999 1 1 1 1
          1 1 1 1 1 1 1 1 0.999999 0.999999 0.999999 0.999999
          0.999999 0.999999 0.999999 1 1 1 1 1 1 1 1 1
          1 1 1 1 1 1 1 1 1 1 1 1
          1 1 1 1 1 1 1 1 1 1 0.999999 0.999999
          0.999998 0.999998 0.999998 0.999998 0.999998 0.999998 0.999998 0.999998 0.999998 0.999998 0.999998 0.999999
          0.999999 0.999999 0.999999 0.999999 0.999999 0.999999 1 1 1 1 1 1
          1 1 1 1 1 1 1 1 1 1 1 1
          1 1 1 1 1 1 1 1 1 1 1 1
          1 1 1 1 1 1 1 1 1 1 1 1
          1 0.999999 0.999999 0.999998 1 0.999999 0.999999 0.999999 0.999999 1 1 1
          1 1 1 1 1 1 1 1 1 1 1 1
          1 1 1 1 1 1 1 1 1 1 1 1
          1 1 1 1 0.999999 0.999999 0.999998 0.999998 0.999998 0.999998 0.999998 0.999998
          0.999998 0.999998 0.999998 0.999998 0.999999 0.999999 0.999998 0.999999 1 0.999999 1 0.999999
          1 1 1 1 1 1 1 1 1 1 1 1
          1 1 1 1 1 1 1 1 1 1 1 1
          1 1 1 1 1 1 1 1 1 1 1 1
          1 1 1 1 1 1 0.999999 0.999998 0.999999 0.999999 0.999998 0.999999
          0.999999 0.999999 0.999999 1 1 1 1 1 1 1 1 1
          1 1 1 1 1 1 1 1 1 1 1 1
          1 1 1 1 1 1 1 1 1 1 1 0.999999
          0.999999 0.999998 0.999998 0.999998 0.999998 0.999998 0.999998 0.999998 0.999998 0.999999 0.999999 0.999999
          1 0.999999 0.999999 0.999999 0.999999 0.999999 1 1 1 1 1 1
          1 1 1 1 1 1 1 1 1 1 1 1
          1 1 1 1 1 1 1 1 1 1 1 1
          1 1 1 1 1 1 1 1 1 1 1 0.999999
          0.999999 0.999999 0.999999 0.999999 0.999999 0.999999 0.999999 0.999999 0.999999 1 1 1
          1 1 1 1 1 1 1 1 1 1 1 1
          1 1 1 1 1 1 1 1 1 1 1 1
          1 1 1 1 1 1 0.999999 0.999999 0.999998 0.999998 0.999998 0.999998
          0.999998 0.999999 0.999999 0.999999 0.999999 0.999999 0.999999 0.999999 0.999999 0.999999 0.999999 0.999999
          1 1 1 1 1 1 1 1 1 1 1 1
          1 1 1 1 1 1 1 1 1 1 1 1
          1 1 1 1 1 1 1 1 1 1 1 1
          1 1 0.999999 0.999999 0.999999 0.999999 0.999999 0.999999 0.999999 0.999999 0.999999 0.999999
          0.999999 0.999999 0.999999 1 1 1 1 1 1 1 1 1
          1 1 1 1 1 1 1 1 1 1 1 1
          1 1 1 1 1 1 1 1 1 1 1 1
          1 0.999999 0.999999 0.999998 0.999998 0.999999 0.999999 0.999999 0.999999 0.999999 0.999999 0.999999
          0.999999 0.999999 0.999999 0.999999 0.999999 0.999999 1 1 1 1 1 1
          1 1 1 1 1 1 1 1 1 1 1 1
          1 1 1 1 1 1 1 1 1 1 1 1
          1 1 1 1 1 1 1 0.999999 0.999999 0.999999 0.999999 0.999999
          0.999999 0.999999 0.999999 0.999999 0.999999 0.999999 0.999999 0.999999 0.999999 1 1 1
          1 1 1 1 1 1 1 1 1 1 1 1
          1 1 1 1 1 1 1 1 1 1 1 1
          1 1 1 1 1 1 1 1 1 1 1 0.999999
          0.999999 0.999999 0.999999 0.999999 0.999999 0.999999 0.999999 0.999999 0.999999 0.999999 0.999999 0.999999
          1 1 1 1 1 1 1 1 1 1 1 1
          1 1 1 1 1 1 1 1 1 1 1 1
          1 1 1 1 1 1 1 1 1 1 1 1
          1 1 1 0.999999 0.999999 0.999999 0.999999 0.999999 0.999999 0.999999 0.999999 0.999999
          0.999999 0.999999 0.999999 1 1 1 1 1 1 1 1 1
          1 1 1 1 1 1 1 1 1 1 1 1
          1 1 1 1 1 1 1 1 1 1 1 1
          1 1 1 1 1 1 1 0.999999 0.999999 0.999999 0.999999 0.999999
          0.999999 0.999999 0.999999 0.999999 0.999999 0.999999 1 1 1 1 1 1
          1 1 1 1 1 1 1 1 1 1 1 1
          1 1 1 1 1 1 1 1 1 1 1 1
          1 1 1 1 1 1 1 1 1 1 1 1
          0.999999 0.999999 0.999999 0.999999 0.999999 0.999999 0.999999 0.999999 0.999999 1 1 1
          1 1 1 1 1 1 1 1 1 1 1 1
          1 1 1 1 1 1 1 1 1 1 1 1
          1 1 1 1 1 1 1 1 1 1 1 1
          1 1 1 1 1 1 1 0.999999 0.999999 0.999999 0.999999 0.999999
          1 1 1 1 1 1 1 1 1 1 1 1
          1 1 1 1 1 1 1 1 1 1 1 1
          1 1 1 1 1 1 1 1 1 1 1 1
          1 1 1 1 1 1 1 1 1 1 1 1
          1 0.999999 0.999999
        </DataArray>
        <DataArray type="Float32" Name="p_liq" NumberOfComponents="1" format="ascii">
          2.07252e+07 2.0722e+07 2.06958e+07 2.06926e+07 2.07189e+07 2.06895e+07 2.07158e+07 2.06864e+07 2.07127e+07 2.06833e+07 2.07096e+07 2.06802e+07
          2.07066e+07 2.06771e+07 2.07035e+07 2.06741e+07 2.07005e+07 2.06711e+07 2.06975e+07 2.06681e+07 2.06945e+07 2.06651e+07 2.06916e+07 2.06622e+07
          2.06886e+07 2.06592e+07 2.06857e+07 2.06563e+07 2.06828e+07 2.06534e+07 2.06799e+07 2.06505e+07 2.06771e+07 2.06476e+07 2.06742e+07 2.06448e+07
          2.06714e+07 2.06419e+07 2.06685e+07 2.06391e+07 2.06657e+07 2.06363e+07 2.0663e+07 2.06335e+07 2.06602e+07 2.06308e+07 2.06574e+07 2.0628e+07
          2.06547e+07 2.06253e+07 2.0652e+07 2.06225e+07 2.06493e+07 2.06198e+07 2.06466e+07 2.06171e+07 2.06439e+07 2.06145e+07 2.06412e+07 2.06118e+07
          2.06386e+07 2.06092e+07 2.06359e+07 2.06065e+07 2.06333e+07 2.06039e+07 2.06307e+07 2.06013e+07 2.06281e+07 2.05987e+07 2.06255e+07 2.05961e+07
          2.0623e+07 2.05936e+07 2.06204e+07 2.0591e+07 2.06179e+07 2.05885e+07 2.06154e+07 2.0586e+07 2.06129e+07 2.05834e+07 2.06104e+07 2.0581e+07
          2.06079e+07 2.05785e+07 2.06054e+07 2.0576e+07 2.0603e+07 2.05736e+07 2.06005e+07 2.05711e+07 2.05981e+07 2.05687e+07 2.05957e+07 2.05663e+07
          2.05933e+07 2.05639e+07 2.0591e+07 2.05615e+07 2.05886e+07 2.05592e+07 2.06663e+07 2.06632e+07 2.066e+07 2.06569e+07 2.06538e+07 2.06508e+07
          2.06477e+07 2.06447e+07 2.06417e+07 2.06387e+07 2.06357e+07 2.06327e+07 2.06298e+07 2.06269e+07 2.0624e+07 2.06211e+07 2.06182e+07 2.06153e+07
          2.06125e+07 2.06097e+07 2.06069e+07 2.06041e+07 2.06013e+07 2.05986e+07 2.05958e+07 2.05931e+07 2.05904e+07 2.05877e+07 2.0585e+07 2.05824e+07
          2.05797e+07 2.05771e+07 2.05745e+07 2.05719e+07 2.05693e+07 2.05667e+07 2.05641e+07 2.05616e+07 2.05591e+07 2.05565e+07 2.0554e+07 2.05515e+07
          2.05491e+07 2.05466e+07 2.05441e+07 2.05417e+07 2.05393e+07 2.05369e+07 2.05345e+07 2.05321e+07 2.05297e+07 2.06369e+07 2.06337e+07 2.06306e+07
          2.06275e+07 2.06244e+07 2.06213e+07 2.06183e+07 2.06152e+07 2.06122e+07 2.06092e+07 2.06063e+07 2.06033e+07 2.06004e+07 2.05974e+07 2.05945e+07
          2.05916e+07 2.05888e+07 2.05859e+07 2.05831e+07 2.05803e+07 2.05775e+07 2.05747e+07 2.05719e+07 2.05691e+07 2.05664e+07 2.05637e+07 2.0561e+07
          2.05583e+07 2.05556e+07 2.05529e+07 2.05503e+07 2.05477e+07 2.0545e+07 2.05424e+07 2.05399e+07 2.05373e+07 2.05347e+07 2.05322e+07 2.05296e+07
          2.05271e+07 2.05246e+07 2.05221e+07 2.05196e+07 2.05172e+07 2.05147e+07 2.05123e+07 2.05099e+07 2.05075e+07 2.05051e+07 2.05027e+07 2.05003e+07
          2.06075e+07 2.06043e+07 2.06012e+07 2.05981e+07 2.0595e+07 2.05919e+07 2.05888e+07 2.05858e+07 2.05828e+07 2.05798e+07 2.05768e+07 2.05739e+07
          2.05709e+07 2.0568e+07 2.05651e+07 2.05622e+07 2.05593e+07 2.05565e+07 2.05536e+07 2.05508e+07 2.0548e+07 2.05452e+07 2.05425e+07 2.05397e+07
          2.0537e+07 2.05343e+07 2.05316e+07 2.05289e+07 2.05262e+07 2.05235e+07 2.05209e+07 2.05182e+07 2.05156e+07 2.0513e+07 2.05104e+07 2.05079e+07
          2.05053e+07 2.05028e+07 2.05002e+07 2.04977e+07 2.04952e+07 2.04927e+07 2.04902e+07 2.04878e+07 2.04853e+07 2.04829e+07 2.04804e+07 2.0478e+07
          2.04756e+07 2.04733e+07 2.04709e+07 2.0578e+07 2.05749e+07 2.05718e+07 2.05686e+07 2.05655e+07 2.05625e+07 2.05594e+07 2.05564e+07 2.05534e+07
          2.05504e+07 2.05474e+07 2.05444e+07 2.05415e+07 2.05386e+07 2.05357e+07 2.05328e+07 2.05299e+07 2.05271e+07 2.05242e+07 2.05214e+07 2.05186e+07
          2.05158e+07 2.0513e+07 2.05103e+07 2.05076e+07 2.05048e+07 2.05021e+07 2.04994e+07 2.04968e+07 2.04941e+07 2.04914e+07 2.04888e+07 2.04862e+07
          2.04836e+07 2.0481e+07 2.04784e+07 2.04759e+07 2.04733e+07 2.04708e+07 2.04683e+07 2.04658e+07 2.04633e+07 2.04608e+07 2.04583e+07 2.04559e+07
          2.04534e+07 2.0451e+07 2.04486e+07 2.04462e+07 2.04438e+07 2.04414e+07 2.05486e+07 2.05455e+07 2.05423e+07 2.05392e+07 2.05361e+07 2.0533e+07
          2.053e+07 2.0527e+07 2.05239e+07 2.05209e+07 2.0518e+07 2.0515e+07 2.05121e+07 2.05091e+07 2.05062e+07 2.05034e+07 2.05005e+07 2.04976e+07
          2.04948e+07 2.0492e+07 2.04892e+07 2.04864e+07 2.04836e+07 2.04809e+07 2.04781e+07 2.04754e+07 2.04727e+07 2.047e+07 2.04673e+07 2.04647e+07
          2.0462e+07 2.04594e+07 2.04568e+07 2.04542e+07 2.04516e+07 2.0449e+07 2.04464e+07 2.04439e+07 2.04414e+07 2.04389e+07 2.04363e+07 2.04339e+07
          2.04314e+07 2.04289e+07 2.04265e+07 2.0424e+07 2.04216e+07 2.04192e+07 2.04168e+07 2.04144e+07 2.0412e+07 2.05192e+07 2.0516e+07 2.05129e+07
[...]
      <CellData Scalars="process rank">
        <DataArray type="Float32" Name="process rank" NumberOfComponents="1" format="ascii">
          3 3 3 3 3 3 3 3 3 3 3 3
          3 3 3 3 3 3 3 3 3 3 3 3
          3 3 3 3 3 3 3 3 3 3 3 3
          3 3 3 3 3 3 3 3 3 3 3 3
          3 3 3 3 3 3 3 3 3 3 3 3
          3 3 3 3 3 3 3 3 3 3 3 3
          3 3 3 3 3 3 3 3 3 3 3 3
          3 3 3 3 3 3 3 3 3 3 3 3
          3 3 3 3 3 3 3 3 3 3 3 3
          3 3 3 3 3 3 3 3 3 3 3 3
          3 3 3 3 3 3 3 3 3 3 3 3
          3 3 3 3 3 3 3 3 3 3 3 3
          3 3 3 3 3 3 3 3 3 3 3 3
          3 3 3 3 3 3 3 3 3 3 3 3
          3 3 3 3 3 3 3 3 3 3 3 3
          3 3 3 3 3 3 3 3 3 3 3 3
          3 3 3 3 3 3 3 3 3 3 3 3
          3 3 3 3 3 3 3 3 3 3 3 3
          3 3 3 3 3 3 3 3 3 3 3 3
          3 3 3 3 3 3 3 3 3 3 3 3
          3 3 3 3 3 3 3 3 3 3 3 3
          3 3 3 3 3 3 3 3 3 3 3 3
          3 3 3 3 3 3 3 3 3 3 3 3
          3 3 3 3 3 3 3 3 3 3 3 3
          3 3 3 3 3 3 3 3 3 3 3 3
          3 3 3 3 3 3 3 3 3 3 3 3
          3 3 3 3 3 3 3 3 3 3 3 3
          3 3 3 3 3 3 3 3 3 3 3 3
          3 3 3 3 3 3 3 3 3 3 3 3
          3 3 3 3 3 3 3 3 3 3 3 3
          3 3 3 3 3 3 3 3 3 3 3 3
          3 3 3 3 3 3 3 3 3 3 3 3
          3 3 3 3 3 3 3 3 3 3 3 3
          3 3 3 3 3 3 3 3 3 3 3 3
          3 3 3 3 3 3 3 3 3 3 3 3
          3 3 3 3 3 3 3 3 3 3 3 3
          3 3 3 3 3 3 3 3 3 3 3 3
          3 3 3 3 3 3 3 3 3 3 3 3
          3 3 3 3 3 3 3 3 3 3 3 3
          3 3 3 3 3 3 3 3 3 3 3 3
          3 3 3 3 3 3 3 3 3 3 3 3
          3 3 3 3 3 3 3 3 3 3 3 3
          3 3 3 3 3 3 3 3 3 3 3 3
          3 3 3 3 3 3 3 3 3 3 3 3
          3 3 3 3 3 3 3 3 3 3 3 3
          3 3 3 3 3 3 3 3 3 3 3 3
          3 3 3 3 3 3 3 3 3 3 3 3
          3 3 3 3 3 3 3 3 3 3 3 3
          3 3 3 3 3 3 3 3 3 3 3 3
          3 3 3 3 3 3 3 3 3 3 3 3
          3 3 3 3 3 3 3 3 3 3 3 3
          3 3 3 3 3 3 3 3 3 3 3 3
          3 3 3 3 3 3 3 3 3 3 3 3
          3 3 3 3 3 3 3 3 3 3 3 3
          3 3 3 3 3 3 3 3 3 3 3 3
          3 3 3 3 3 3 3 3 3 3 3 3
          3 3 3 3 3 3 3 3 3 3 3 3
          3 3 3 3 3 3 3 3 3 3 3 3
          3 3 3 3 3 3 3 3 3 3 3 3
          3 3 3 3 3 3 3 3 3 3 3 3
          3 3 3 3 3 3 3 3 3 3 3 3
          3 3 3 3 3 3 3 3 3 3 3 3
          3 3 3 3 3 3 3 3 3 3 3 3
          3 3 3 3 3 3 3 3 3 3 3 3
          3 3 3 3 3 3 3 3 3 3 3 3
          3 3 3 3 3 3 3 3 3 3 3 3
          3 3 3 3 3 3 3 3 3 3 3 3
          3 3 3 3 3 3 3 3 3 3 3 3
          3 3 3 3 3 3 3 3 3 3 3 3
          3 3 3 3 3 3 3 3 3 3 3 3
          3 3 3 3 3 3 3 3 3 3 3 3
          3 3 3 3 3 3 3 3 3 3 3 3
          3 3 3 3 3 3 3 3 3 3 3 3
          3 3 3 3 3 3 3 3 3 3 3 3
          3 3 3 3 3 3 3 3 3 3 3 3
          3 3 3 3 3 3 3 3 3 3 3 3
          3 3 3 3 3 3 3 3 3 3 3 3
          3 3 3 3 3 3 3 3 3 3 3 3
          3 3 3 3 3 3 3 3 3 3 3 3
          3 3 3 3 3 3 3 3 3 3 3 3
          3 3 3 3 3 3 3 3 3 3 3 3
          3 3 3 3 3 3 3 3 3 3 3 3
          3 3 3 3 3 3 3 3 3 3 3 3
          3 3 3 3
        </DataArray>
      </CellData>
      <Points>
        <DataArray type="Float32" Name="Coordinates" NumberOfComponents="3" format="ascii">
          750.2 0 0 755.2 0 0 750.2 3 0 755.2 3 0
          760.2 0 0 760.2 3 0 765.2 0 0 765.2 3 0
          770.2 0 0 770.2 3 0 775.2 0 0 775.2 3 0
          780.2 0 0 780.2 3 0 785.2 0 0 785.2 3 0
          790.2 0 0 790.2 3 0 795.2 0 0 795.2 3 0
          800.2 0 0 800.2 3 0 805.2 0 0 805.2 3 0
          810.2 0 0 810.2 3 0 815.2 0 0 815.2 3 0
          820.2 0 0 820.2 3 0 825.2 0 0 825.2 3 0
          830.2 0 0 830.2 3 0 835.2 0 0 835.2 3 0
          840.2 0 0 840.2 3 0 845.2 0 0 845.2 3 0
          850.2 0 0 850.2 3 0 855.2 0 0 855.2 3 0
          860.2 0 0 860.2 3 0 865.2 0 0 865.2 3 0
          870.2 0 0 870.2 3 0 875.2 0 0 875.2 3 0
          880.2 0 0 880.2 3 0 885.2 0 0 885.2 3 0
          890.2 0 0 890.2 3 0 895.2 0 0 895.2 3 0
          900.2 0 0 900.2 3 0 905.2 0 0 905.2 3 0
          910.2 0 0 910.2 3 0 915.2 0 0 915.2 3 0
          920.2 0 0 920.2 3 0 925.2 0 0 925.2 3 0
          930.2 0 0 930.2 3 0 935.2 0 0 935.2 3 0
          940.2 0 0 940.2 3 0 945.2 0 0 945.2 3 0
          950.2 0 0 950.2 3 0 955.2 0 0 955.2 3 0
          960.2 0 0 960.2 3 0 965.2 0 0 965.2 3 0
          970.2 0 0 970.2 3 0 975.2 0 0 975.2 3 0
          980.2 0 0 980.2 3 0 985.2 0 0 985.2 3 0
          990.2 0 0 990.2 3 0 995.2 0 0 995.2 3 0
          1000.2 0 0 1000.2 3 0 750.2 6 0 755.2 6 0
          760.2 6 0 765.2 6 0 770.2 6 0 775.2 6 0
          780.2 6 0 785.2 6 0 790.2 6 0 795.2 6 0
          800.2 6 0 805.2 6 0 810.2 6 0 815.2 6 0
          820.2 6 0 825.2 6 0 830.2 6 0 835.2 6 0
          840.2 6 0 845.2 6 0 850.2 6 0 855.2 6 0
          860.2 6 0 865.2 6 0 870.2 6 0 875.2 6 0
          880.2 6 0 885.2 6 0 890.2 6 0 895.2 6 0
          900.2 6 0 905.2 6 0 910.2 6 0 915.2 6 0
          920.2 6 0 925.2 6 0 930.2 6 0 935.2 6 0
          940.2 6 0 945.2 6 0 950.2 6 0 955.2 6 0
          960.2 6 0 965.2 6 0 970.2 6 0 975.2 6 0
          980.2 6 0 985.2 6 0 990.2 6 0 995.2 6 0
          1000.2 6 0 750.2 9 0 755.2 9 0 760.2 9 0
          765.2 9 0 770.2 9 0 775.2 9 0 780.2 9 0
          785.2 9 0 790.2 9 0 795.2 9 0 800.2 9 0
          805.2 9 0 810.2 9 0 815.2 9 0 820.2 9 0
          825.2 9 0 830.2 9 0 835.2 9 0 840.2 9 0
          845.2 9 0 850.2 9 0 855.2 9 0 860.2 9 0
          865.2 9 0 870.2 9 0 875.2 9 0 880.2 9 0
          885.2 9 0 890.2 9 0 895.2 9 0 900.2 9 0
          905.2 9 0 910.2 9 0 915.2 9 0 920.2 9 0
          925.2 9 0 930.2 9 0 935.2 9 0 940.2 9 0
          945.2 9 0 950.2 9 0 955.2 9 0 960.2 9 0
          965.2 9 0 970.2 9 0 975.2 9 0 980.2 9 0
          985.2 9 0 990.2 9 0 995.2 9 0 1000.2 9 0
          750.2 12 0 755.2 12 0 760.2 12 0 765.2 12 0
          770.2 12 0 775.2 12 0 780.2 12 0 785.2 12 0
          790.2 12 0 795.2 12 0 800.2 12 0 805.2 12 0
          810.2 12 0 815.2 12 0 820.2 12 0 825.2 12 0
          830.2 12 0 835.2 12 0 840.2 12 0 845.2 12 0
          850.2 12 0 855.2 12 0 860.2 12 0 865.2 12 0
          870.2 12 0 875.2 12 0 880.2 12 0 885.2 12 0
          890.2 12 0 895.2 12 0 900.2 12 0 905.2 12 0
          910.2 12 0 915.2 12 0 920.2 12 0 925.2 12 0
          930.2 12 0 935.2 12 0 940.2 12 0 945.2 12 0
          950.2 12 0 955.2 12 0 960.2 12 0 965.2 12 0
          970.2 12 0 975.2 12 0 980.2 12 0 985.2 12 0
          990.2 12 0 995.2 12 0 1000.2 12 0 750.2 15 0
          755.2 15 0 760.2 15 0 765.2 15 0 770.2 15 0
          775.2 15 0 780.2 15 0 785.2 15 0 790.2 15 0
          795.2 15 0 800.2 15 0 805.2 15 0 810.2 15 0
          815.2 15 0 820.2 15 0 825.2 15 0 830.2 15 0
          835.2 15 0 840.2 15 0 845.2 15 0 850.2 15 0
          855.2 15 0 860.2 15 0 865.2 15 0 870.2 15 0
          875.2 15 0 880.2 15 0 885.2 15 0 890.2 15 0
          895.2 15 0 900.2 15 0 905.2 15 0 910.2 15 0
          915.2 15 0 920.2 15 0 925.2 15 0 930.2 15 0
          935.2 15 0 940.2 15 0 945.2 15 0 950.2 15 0
          955.2 15 0 960.2 15 0 965.2 15 0 970.2 15 0
          975.2 15 0 980.2 15 0 985.2 15 0 990.2 15 0
          995.2 15 0 1000.2 15 0 750.2 18 0 755.2 18 0
          760.2 18 0 765.2 18 0 770.2 18 0 775.2 18 0
          780.2 18 0 785.2 18 0 790.2 18 0 795.2 18 0
          800.2 18 0 805.2 18 0 810.2 18 0 815.2 18 0
          820.2 18 0 825.2 18 0 830.2 18 0 835.2 18 0
          840.2 18 0 845.2 18 0 850.2 18 0 855.2 18 0
          860.2 18 0 865.2 18 0 870.2 18 0 875.2 18 0
          880.2 18 0 885.2 18 0 890.2 18 0 895.2 18 0
          900.2 18 0 905.2 18 0 910.2 18 0 915.2 18 0
          920.2 18 0 925.2 18 0 930.2 18 0 935.2 18 0
          940.2 18 0 945.2 18 0 950.2 18 0 955.2 18 0
          960.2 18 0 965.2 18 0 970.2 18 0 975.2 18 0
          980.2 18 0 985.2 18 0 990.2 18 0 995.2 18 0
          1000.2 18 0 750.2 21 0 755.2 21 0 760.2 21 0
          765.2 21 0 770.2 21 0 775.2 21 0 780.2 21 0
          785.2 21 0 790.2 21 0 795.2 21 0 800.2 21 0
          805.2 21 0 810.2 21 0 815.2 21 0 820.2 21 0
          825.2 21 0 830.2 21 0 835.2 21 0 840.2 21 0
          845.2 21 0 850.2 21 0 855.2 21 0 860.2 21 0
          865.2 21 0 870.2 21 0 875.2 21 0 880.2 21 0
          885.2 21 0 890.2 21 0 895.2 21 0 900.2 21 0
          905.2 21 0 910.2 21 0 915.2 21 0 920.2 21 0
          925.2 21 0 930.2 21 0 935.2 21 0 940.2 21 0
          945.2 21 0 950.2 21 0 955.2 21 0 960.2 21 0
          965.2 21 0 970.2 21 0 975.2 21 0 980.2 21 0
          985.2 21 0 990.2 21 0 995.2 21 0 1000.2 21 0
          750.2 24 0 755.2 24 0 760.2 24 0 765.2 24 0
          770.2 24 0 775.2 24 0 780.2 24 0 785.2 24 0
          790.2 24 0 795.2 24 0 800.2 24 0 805.2 24 0
          810.2 24 0 815.2 24 0 820.2 24 0 825.2 24 0
          830.2 24 0 835.2 24 0 840.2 24 0 845.2 24 0
          850.2 24 0 855.2 24 0 860.2 24 0 865.2 24 0
          870.2 24 0 875.2 24 0 880.2 24 0 885.2 24 0
          890.2 24 0 895.2 24 0 900.2 24 0 905.2 24 0
          910.2 24 0 915.2 24 0 920.2 24 0 925.2 24 0
          930.2 24 0 935.2 24 0 940.2 24 0 945.2 24 0
          950.2 24 0 955.2 24 0 960.2 24 0 965.2 24 0
          970.2 24 0 975.2 24 0 980.2 24 0 985.2 24 0
          990.2 24 0 995.2 24 0 1000.2 24 0 750.2 27 0
          755.2 27 0 760.2 27 0 765.2 27 0 770.2 27 0
          775.2 27 0 780.2 27 0 785.2 27 0 790.2 27 0
          795.2 27 0 800.2 27 0 805.2 27 0 810.2 27 0
          815.2 27 0 820.2 27 0 825.2 27 0 830.2 27 0
          835.2 27 0 840.2 27 0 845.2 27 0 850.2 27 0
          855.2 27 0 860.2 27 0 865.2 27 0 870.2 27 0
          875.2 27 0 880.2 27 0 885.2 27 0 890.2 27 0
          895.2 27 0 900.2 27 0 905.2 27 0 910.2 27 0
          915.2 27 0 920.2 27 0 925.2 27 0 930.2 27 0
          935.2 27 0 940.2 27 0 945.2 27 0 950.2 27 0
          955.2 27 0 960.2 27 0 965.2 27 0 970.2 27 0
          975.2 27 0 980.2 27 0 985.2 27 0 990.2 27 0
          995.2 27 0 1000.2 27 0 750.2 30 0 755.2 30 0
          760.2 30 0 765.2 30 0 770.2 30 0 775.2 30 0
          780.2 30 0 785.2 30 0 790.2 30 0 795.2 30 0
          800.2 30 0 805.2 30 0 810.2 30 0 815.2 30 0
          820.2 30 0 825.2 30 0 830.2 30 0 835.2 30 0
          840.2 30 0 845.2 30 0 850.2 30 0 855.2 30 0
          860.2 30 0 865.2 30 0 870.2 30 0 875.2 30 0
          880.2 30 0 885.2 30 0 890.2 30 0 895.2 30 0
          900.2 30 0 905.2 30 0 910.2 30 0 915.2 30 0
          920.2 30 0 925.2 30 0 930.2 30 0 935.2 30 0
          940.2 30 0 945.2 30 0 950.2 30 0 955.2 30 0
          960.2 30 0 965.2 30 0 970.2 30 0 975.2 30 0
          980.2 30 0 985.2 30 0 990.2 30 0 995.2 30 0
          1000.2 30 0 750.2 33 0 755.2 33 0 760.2 33 0
          765.2 33 0 770.2 33 0 775.2 33 0 780.2 33 0
          785.2 33 0 790.2 33 0 795.2 33 0 800.2 33 0
          805.2 33 0 810.2 33 0 815.2 33 0 820.2 33 0
          825.2 33 0 830.2 33 0 835.2 33 0 840.2 33 0
          845.2 33 0 850.2 33 0 855.2 33 0 860.2 33 0
          865.2 33 0 870.2 33 0 875.2 33 0 880.2 33 0
          885.2 33 0 890.2 33 0 895.2 33 0 900.2 33 0
          905.2 33 0 910.2 33 0 915.2 33 0 920.2 33 0
          925.2 33 0 930.2 33 0 935.2 33 0 940.2 33 0
          945.2 33 0 950.2 33 0 955.2 33 0 960.2 33 0
          965.2 33 0 970.2 33 0 975.2 33 0 980.2 33 0
          985.2 33 0 990.2 33 0 995.2 33 0 1000.2 33 0
          750.2 36 0 755.2 36 0 760.2 36 0 765.2 36 0
          770.2 36 0 775.2 36 0 780.2 36 0 785.2 36 0
          790.2 36 0 795.2 36 0 800.2 36 0 805.2 36 0
          810.2 36 0 815.2 36 0 820.2 36 0 825.2 36 0
          830.2 36 0 835.2 36 0 840.2 36 0 845.2 36 0
          850.2 36 0 855.2 36 0 860.2 36 0 865.2 36 0
          870.2 36 0 875.2 36 0 880.2 36 0 885.2 36 0
          890.2 36 0 895.2 36 0 900.2 36 0 905.2 36 0
          910.2 36 0 915.2 36 0 920.2 36 0 925.2 36 0
          930.2 36 0 935.2 36 0 940.2 36 0 945.2 36 0
          950.2 36 0 955.2 36 0 960.2 36 0 965.2 36 0
          970.2 36 0 975.2 36 0 980.2 36 0 985.2 36 0
          990.2 36 0 995.2 36 0 1000.2 36 0 750.2 39 0
          755.2 39 0 760.2 39 0 765.2 39 0 770.2 39 0
          775.2 39 0 780.2 39 0 785.2 39 0 790.2 39 0
          795.2 39 0 800.2 39 0 805.2 39 0 810.2 39 0
          815.2 39 0 820.2 39 0 825.2 39 0 830.2 39 0
          835.2 39 0 840.2 39 0 845.2 39 0 850.2 39 0
          855.2 39 0 860.2 39 0 865.2 39 0 870.2 39 0
          875.2 39 0 880.2 39 0 885.2 39 0 890.2 39 0
          895.2 39 0 900.2 39 0 905.2 39 0 910.2 39 0
          915.2 39 0 920.2 39 0 925.2 39 0 930.2 39 0
          935.2 39 0 940.2 39 0 945.2 39 0 950.2 39 0
          955.2 39 0 960.2 39 0 965.2 39 0 970.2 39 0
          975.2 39 0 980.2 39 0 985.2 39 0 990.2 39 0
          995.2 39 0 1000.2 39 0 750.2 42 0 755.2 42 0
          760.2 42 0 765.2 42 0 770.2 42 0 775.2 42 0
          780.2 42 0 785.2 42 0 790.2 42 0 795.2 42 0
          800.2 42 0 805.2 42 0 810.2 42 0 815.2 42 0
          820.2 42 0 825.2 42 0 830.2 42 0 835.2 42 0
          840.2 42 0 845.2 42 0 850.2 42 0 855.2 42 0
          860.2 42 0 865.2 42 0 870.2 42 0 875.2 42 0
          880.2 42 0 885.2 42 0 890.2 42 0 895.2 42 0
          900.2 42 0 905.2 42 0 910.2 42 0 915.2 42 0
          920.2 42 0 925.2 42 0 930.2 42 0 935.2 42 0
          940.2 42 0 945.2 42 0 950.2 42 0 955.2 42 0
          960.2 42 0 965.2 42 0 970.2 42 0 975.2 42 0
          980.2 42 0 985.2 42 0 990.2 42 0 995.2 42 0
          1000.2 42 0 750.2 45 0 755.2 45 0 760.2 45 0
          765.2 45 0 770.2 45 0 775.2 45 0 780.2 45 0
          785.2 45 0 790.2 45 0 795.2 45 0 800.2 45 0
          805.2 45 0 810.2 45 0 815.2 45 0 820.2 45 0
          825.2 45 0 830.2 45 0 835.2 45 0 840.2 45 0
          845.2 45 0 850.2 45 0 855.2 45 0 860.2 45 0
          865.2 45 0 870.2 45 0 875.2 45 0 880.2 45 0
          885.2 45 0 890.2 45 0 895.2 45 0 900.2 45 0
          905.2 45 0 910.2 45 0 915.2 45 0 920.2 45 0
          925.2 45 0 930.2 45 0 935.2 45 0 940.2 45 0
          945.2 45 0 950.2 45 0 955.2 45 0 960.2 45 0
          965.2 45 0 970.2 45 0 975.2 45 0 980.2 45 0
          985.2 45 0 990.2 45 0 995.2 45 0 1000.2 45 0
          750.2 48 0 755.2 48 0 760.2 48 0 765.2 48 0
          770.2 48 0 775.2 48 0 780.2 48 0 785.2 48 0
          790.2 48 0 795.2 48 0 800.2 48 0 805.2 48 0
          810.2 48 0 815.2 48 0 820.2 48 0 825.2 48 0
          830.2 48 0 835.2 48 0 840.2 48 0 845.2 48 0
          850.2 48 0 855.2 48 0 860.2 48 0 865.2 48 0
          870.2 48 0 875.2 48 0 880.2 48 0 885.2 48 0
          890.2 48 0 895.2 48 0 900.2 48 0 905.2 48 0
          910.2 48 0 915.2 48 0 920.2 48 0 925.2 48 0
          930.2 48 0 935.2 48 0 940.2 48 0 945.2 48 0
          950.2 48 0 955.2 48 0 960.2 48 0 965.2 48 0
          970.2 48 0 975.2 48 0 980.2 48 0 985.2 48 0
          990.2 48 0 995.2 48 0 1000.2 48 0 750.2 51 0
          755.2 51 0 760.2 51 0 765.2 51 0 770.2 51 0
          775.2 51 0 780.2 51 0 785.2 51 0 790.2 51 0
          795.2 51 0 800.2 51 0 805.2 51 0 810.2 51 0
          815.2 51 0 820.2 51 0 825.2 51 0 830.2 51 0
          835.2 51 0 840.2 51 0 845.2 51 0 850.2 51 0
          855.2 51 0 860.2 51 0 865.2 51 0 870.2 51 0
          875.2 51 0 880.2 51 0 885.2 51 0 890.2 51 0
          895.2 51 0 900.2 51 0 905.2 51 0 910.2 51 0
          915.2 51 0 920.2 51 0 925.2 51 0 930.2 51 0
          935.2 51 0 940.2 51 0 945.2 51 0 950.2 51 0
          955.2 51 0 960.2 51 0 965.2 51 0 970.2 51 0
          975.2 51 0 980.2 51 0 985.2 51 0 990.2 51 0
          995.2 51 0 1000.2 51 0 750.2 54 0 755.2 54 0
          760.2 54 0 765.2 54 0 770.2 54 0 775.2 54 0
          780.2 54 0 785.2 54 0 790.2 54 0 795.2 54 0
          800.2 54 0 805.2 54 0 810.2 54 0 815.2 54 0
          820.2 54 0 825.2 54 0 830.2 54 0 835.2 54 0
          840.2 54 0 845.2 54 0 850.2 54 0 855.2 54 0
          860.2 54 0 865.2 54 0 870.2 54 0 875.2 54 0
          880.2 54 0 885.2 54 0 890.2 54 0 895.2 54 0
          900.2 54 0 905.2 54 0 910.2 54 0 915.2 54 0
          920.2 54 0 925.2 54 0 930.2 54 0 935.2 54 0
          940.2 54 0 945.2 54 0 950.2 54 0 955.2 54 0
          960.2 54 0 965.2 54 0 970.2 54 0 975.2 54 0
          980.2 54 0 985.2 54 0 990.2 54 0 995.2 54 0
          1000.2 54 0 750.2 57 0 755.2 57 0 760.2 57 0
          765.2 57 0 770.2 57 0 775.2 57 0 780.2 57 0
          785.2 57 0 790.2 57 0 795.2 57 0 800.2 57 0
          805.2 57 0 810.2 57 0 815.2 57 0 820.2 57 0
          825.2 57 0 830.2 57 0 835.2 57 0 840.2 57 0
          845.2 57 0 850.2 57 0 855.2 57 0 860.2 57 0
          865.2 57 0 870.2 57 0 875.2 57 0 880.2 57 0
          885.2 57 0 890.2 57 0 895.2 57 0 900.2 57 0
          905.2 57 0 910.2 57 0 915.2 57 0 920.2 57 0
          925.2 57 0 930.2 57 0 935.2 57 0 940.2 57 0
          945.2 57 0 950.2 57 0 955.2 57 0 960.2 57 0
          965.2 57 0 970.2 57 0 975.2 57 0 980.2 57 0
          985.2 57 0 990.2 57 0 995.2 57 0 1000.2 57 0
          750.2 60 0 755.2 60 0 760.2 60 0 765.2 60 0
          770.2 60 0 775.2 60 0 780.2 60 0 785.2 60 0
          790.2 60 0 795.2 60 0 800.2 60 0 805.2 60 0
          810.2 60 0 815.2 60 0 820.2 60 0 825.2 60 0
          830.2 60 0 835.2 60 0 840.2 60 0 845.2 60 0
          850.2 60 0 855.2 60 0 860.2 60 0 865.2 60 0
          870.2 60 0 875.2 60 0 880.2 60 0 885.2 60 0
          890.2 60 0 895.2 60 0 900.2 60 0 905.2 60 0
          910.2 60 0 915.2 60 0 920.2 60 0 925.2 60 0
          930.2 60 0 935.2 60 0 940.2 60 0 945.2 60 0
          950.2 60 0 955.2 60 0 960.2 60 0 965.2 60 0
          970.2 60 0 975.2 60 0 980.2 60 0 985.2 60 0
          990.2 60 0 995.2 60 0 1000.2 60 0
        </DataArray>
      </Points>
      <Cells>
        <DataArray type="Int32" Name="connectivity" NumberOfComponents="1" format="ascii">
          0 1 3 2 1 4 5 3 4 6 7 5
          6 8 9 7 8 10 11 9 10 12 13 11
          12 14 15 13 14 16 17 15 16 18 19 17
          18 20 21 19 20 22 23 21 22 24 25 23
          24 26 27 25 26 28 29 27 28 30 31 29
          30 32 33 31 32 34 35 33 34 36 37 35
          36 38 39 37 38 40 41 39 40 42 43 41
          42 44 45 43 44 46 47 45 46 48 49 47
          48 50 51 49 50 52 53 51 52 54 55 53
          54 56 57 55 56 58 59 57 58 60 61 59
          60 62 63 61 62 64 65 63 64 66 67 65
          66 68 69 67 68 70 71 69 70 72 73 71
          72 74 75 73 74 76 77 75 76 78 79 77
          78 80 81 79 80 82 83 81 82 84 85 83
          84 86 87 85 86 88 89 87 88 90 91 89
          90 92 93 91 92 94 95 93 94 96 97 95
          96 98 99 97 98 100 101 99 2 3 103 102
          3 5 104 103 5 7 105 104 7 9 106 105
          9 11 107 106 11 13 108 107 13 15 109 108
          15 17 110 109 17 19 111 110 19 21 112 111
          21 23 113 112 23 25 114 113 25 27 115 114
          27 29 116 115 29 31 117 116 31 33 118 117
          33 35 119 118 35 37 120 119 37 39 121 120
          39 41 122 121 41 43 123 122 43 45 124 123
          45 47 125 124 47 49 126 125 49 51 127 126
          51 53 128 127 53 55 129 128 55 57 130 129
          57 59 131 130 59 61 132 131 61 63 133 132
          63 65 134 133 65 67 135 134 67 69 136 135
          69 71 137 136 71 73 138 137 73 75 139 138
          75 77 140 139 77 79 141 140 79 81 142 141
          81 83 143 142 83 85 144 143 85 87 145 144
          87 89 146 145 89 91 147 146 91 93 148 147
          93 95 149 148 95 97 150 149 97 99 151 150
          99 101 152 151 102 103 154 153 103 104 155 154
          104 105 156 155 105 106 157 156 106 107 158 157
          107 108 159 158 108 109 160 159 109 110 161 160
          110 111 162 161 111 112 163 162 112 113 164 163
          113 114 165 164 114 115 166 165 115 116 167 166
          116 117 168 167 117 118 169 168 118 119 170 169
          119 120 171 170 120 121 172 171 121 122 173 172
          122 123 174 173 123 124 175 174 124 125 176 175
          125 126 177 176 126 127 178 177 127 128 179 178
          128 129 180 179 129 130 181 180 130 131 182 181
          131 132 183 182 132 133 184 183 133 134 185 184
          134 135 186 185 135 136 187 186 136 137 188 187
          137 138 189 188 138 139 190 189 139 140 191 190
          140 141 192 191 141 142 193 192 142 143 194 193
          143 144 195 194 144 145 196 195 145 146 197 196