<?xml version="1.0"?>
<VTKFile type="UnstructuredGrid" version="0.1" byte_order="LittleEndian">
  <UnstructuredGrid>
    <Piece NumberOfCells="1000" NumberOfPoints="1071">
      <PointData Scalars="S_liq" Vectors="velocity_liq (m/s)">
        <DataArray type="Float32" Name="S_liq" NumberOfComponents="1" format="ascii">
          0.999999 0.999999 0.990178 0.990977 0.999999 0.992495 0.999999 0.99461 0.999999 0.99695 0.999999 0.999015
          0.999999 0.999974 0.999999 0.999999 0.999999 0.999999 0.999999 0.999999 0.999999 0.999999 0.999999 0.999999
          0.999999 0.999999 0.999999 0.999999 0.999999 0.999999 0.999999 0.999999 0.999999 0.999999 0.999999 0.999999
          0.999999 0.999999 0.999999 0.999999 0.999999 0.999999 0.999999 0.999999 0.999999 0.999999 0.999999 0.999999
          0.999999 0.999999 0.999999 0.999999 0.999999 0.999999 0.999999 0.999999 0.999999 0.999999 0.999999 0.999999
          0.999999 0.999999 0.999999 0.999999 0.999999 0.999999 0.999999 0.999999 0.999999 0.999999 0.999999 0.999999
          0.999999 0.999999 0.999999 0.999999 0.999999 0.999999 0.999999 0.999999 0.999999 0.999999 0.999999 0.999999
          0.999999 0.999999 0.999999 0.999999 0.999999 0.999999 0.999999 0.999999 0.999999 0.999999 0.999999 0.999999
          0.999999 0.999999 0.999999 0.999999 0.999999 0.999999 0.838763 0.839969 0.841485 0.843387 0.845768 0.848757
          0.852585 0.857349 0.862932 0.869378 0.876792 0.885336 0.895247 0.906882 0.920752 0.937361 0.956288 0.974955
          0.989766 0.998378 0.999999 0.999999 0.999999 0.999999 0.999999 0.999999 0.999999 0.999999 0.999999 0.999999
          0.999999 0.999999 0.999999 0.999999 0.999999 0.999999 0.999999 0.999999 0.999999 0.999999 0.999999 0.999999
          0.999999 0.999999 0.999999 0.999999 0.999999 0.999999 0.999999 0.999999 0.999999 0.807403 0.808208 0.809172
          0.810269 0.811501 0.812871 0.814378 0.816022 0.817804 0.819728 0.821801 0.824036 0.826457 0.829103 0.832035
          0.835348 0.839184 0.843749 0.849364 0.856654 0.866959 0.881037 0.9002 0.927548 0.962823 0.98924 0.999114
          0.999999 0.999999 0.999999 0.999999 0.999999 0.999999 0.999999 0.999999 0.999999 0.999999 0.999999 0.999999
          0.999999 0.999999 0.999999 0.999999 0.999999 0.999999 0.999999 0.999999 0.999999 0.999999 0.999999 0.999999
          0.790361 0.791241 0.792266 0.793422 0.794709 0.796124 0.797662 0.799316 0.801078 0.802944 0.804907 0.806966
          0.809121 0.811373 0.813728 0.816194 0.81878 0.821495 0.824348 0.827358 0.830561 0.834039 0.83794 0.842525
          0.848239 0.855824 0.866688 0.883575 0.910081 0.951694 0.989325 0.99959 0.999999 0.999999 0.999999 0.999999
          0.999999 0.999999 0.999999 0.999999 0.999999 0.999999 0.999999 0.999999 0.999999 0.999999 0.999999 0.999999
          0.999999 0.999999 0.999999 0.775867 0.776899 0.778079 0.779405 0.780878 0.782491 0.784233 0.786094 0.788061
          0.790124 0.792273 0.794499 0.796795 0.799153 0.80157 0.80404 0.806561 0.80913 0.811747 0.814416 0.817147
          0.819959 0.822881 0.825951 0.829214 0.832726 0.836579 0.840944 0.846169 0.852939 0.862611 0.877916 0.904115
          0.948765 0.991305 0.999941 0.999999 0.999999 0.999999 0.999999 0.999999 0.999999 0.999999 0.999999 0.999999
          0.999999 0.999999 0.999999 0.999999 0.999999 0.999999 0.761984 0.763221 0.76461 0.766167 0.76789 0.76977
          0.771791 0.773935 0.776188 0.778534 0.780958 0.783448 0.785993 0.788584 0.791211 0.793869 0.796552 0.799255
          0.801977 0.804715 0.807474 0.810255 0.813067 0.815918 0.81882 0.821791 0.824859 0.828069 0.831485 0.835197
          0.839338 0.844143 0.850083 0.858164 0.870547 0.892171 0.932149 0.984061 0.999779 0.999999 0.999999 0.999999
          0.999999 0.999999 0.999999 0.999999 0.999999 0.999999 0.999999 0.999999 0.999999 0.748004 0.749507 0.751162
          0.753013 0.755055 0.757272 0.75964 0.762138 0.764744 0.767439 0.770203 0.773022 0.775882 0.778772 0.781681
          0.784602 0.787528 0.790453 0.793375 0.796292 0.799202 0.802107 0.805008 0.807909 0.810815 0.813734 0.816676
          0.819658 0.822699 0.825829 0.829091 0.832551 0.836309 0.840519 0.845451 0.851573 0.859972 0.873142 0.897301
          0.943327 0.992056 0.999979 0.999999 0.999999 0.999999 0.999999 0.999999 0.999999 0.999999 0.999999 0.999999
          0.733482 0.735329 0.737327 0.739554 0.742 0.744638 0.747439 0.750371 0.753407 0.756522 0.759694 0.762905
          0.766139 0.769383 0.772627 0.775861 0.779079 0.782277 0.785449 0.788595 0.791713 0.794803 0.797865 0.800903
          0.803919 0.806917 0.809905 0.812888 0.815879 0.81889 0.821941 0.825057 0.828274 0.831645 0.835251 0.83922
          0.843763 0.849247 0.856332 0.866723 0.884655 0.920401 0.977087 0.999616 0.999999 0.999999 0.999999 0.999999
          0.999999 0.999999 0.999999 0.718027 0.720329 0.722776 0.725491 0.728455 0.731628 0.734968 0.738435 0.741994
          0.745614 0.74927 0.752941 0.75661 0.760264 0.763891 0.767484 0.771036 0.774543 0.778002 0.781412 0.784771
          0.78808 0.791341 0.794556 0.797727 0.800859 0.803955 0.807022 0.810066 0.813097 0.816124 0.819163 0.82223
          0.825352 0.828563 0.831915 0.835481 0.839371 0.843784 0.849064 0.855811 0.865395 0.881576 0.914051 0.970895
          0.999221 0.999999 0.999999 0.999999 0.999999 0.999999 0.701212 0.70413 0.707181 0.710545 0.714188 0.71805
          0.722072 0.726202 0.730398 0.734624 0.738851 0.743059 0.747229 0.75135 0.75541 0.759405 0.763328 0.767177
          0.770952 0.774651 0.778275 0.781828 0.785309 0.788724 0.792075 0.795366 0.798602 0.801788 0.80493 0.808035
          0.811112 0.814168 0.817217 0.820273 0.823356 0.826492 0.829717 0.833083 0.836666 0.840583 0.845036 0.850384
          0.857288 0.867155 0.884106 0.918878 0.97678 0.999592 0.999999 0.999999 0.999999 0.682499 0.68628 0.690174
          0.69443 0.698982 0.703744 0.708636 0.713595 0.718569 0.723521 0.728421 0.73325 0.737992 0.742637 0.74718
          0.751616 0.755943 0.760163 0.764276 0.768285 0.772193 0.776003 0.779719 0.783347 0.78689 0.790355 0.793745
          0.797068 0.800328 0.803533 0.806689 0.809805 0.81289 0.815954 0.81901 0.822075 0.825168 0.828322 0.831576
          0.834987 0.838641 0.842673 0.847313 0.852986 0.860505 0.871672 0.891976 0.934704 0.989371 0.999952 0.999999
          0.661131 0.666183 0.671306 0.676826 0.682629 0.688589 0.694604 0.700599 0.706522 0.712338 0.718023 0.723562
          0.728946 0.734173 0.739242 0.744154 0.748914 0.753525 0.757993 0.762324 0.766524 0.770599 0.774557 0.778402
          0.782143 0.785785 0.789336 0.792801 0.796187 0.799502 0.802752 0.805945 0.809088 0.812192 0.815266 0.818319
          0.821369 0.824435 0.827543 0.830726 0.834031 0.837525 0.841313 0.845562 0.850566 0.856891 0.865652 0.879685
          0.907521 0.962187 0.998211 0.635937 0.64298 0.650004 0.657397 0.664965 0.67254 0.680006 0.687294 0.694363
          0.701193 0.707775 0.714109 0.7202 0.726054 0.731683 0.737095 0.742302 0.747315 0.752143 0.756798 0.76129
          0.765629 0.769823 0.773883 0.777816 0.781632 0.785338 0.788942 0.792452 0.795876 0.799221 0.802494 0.805705
          0.808859 0.811965 0.815032 0.818076 0.82111 0.824152 0.827224 0.830355 0.833585 0.836971 0.8406 0.844606
          0.849214 0.854842 0.862321 0.873425 0.893423 0.935701 0.604823 0.615383 0.625562 0.635855 0.645966 0.655722
          0.665046 0.673914 0.682331 0.690315 0.697891 0.705084 0.711922 0.718428 0.724628 0.730543 0.736194 0.7416
          0.746777 0.751743 0.756511 0.761096 0.765511 0.769768 0.773877 0.777849 0.781695 0.785423 0.789042 0.792562
          0.79599 0.799335 0.802603 0.805798 0.808933 0.812019 0.815067 0.818087 0.821093 0.824102 0.827133 0.830213
          0.833378 0.836679 0.84019 0.844022 0.848362 0.853536 0.860188 0.869627 0.885271 0.564303 0.581275 0.597297
          0.612257 0.626012 0.638632 0.650236 0.660943 0.670861 0.680085 0.688696 0.696761 0.704339 0.711479 0.718224
          0.72461 0.73067 0.736431 0.74192 0.747157 0.752163 0.756956 0.761552 0.765968 0.770215 0.774308 0.778257
          0.782074 0.78577 0.789352 0.792829 0.796208 0.799495 0.802704 0.805845 0.808927 0.811959 0.814951 0.817914
          0.820862 0.82381 0.826777 0.829787 0.832873 0.83608 0.839471 0.843142 0.847244 0.852036 0.858004 0.866109
          0.497247 0.538344 0.565829 0.587886 0.606446 0.622484 0.636608 0.649229 0.660637 0.671045 0.680614 0.689464
          0.697692 0.705375 0.712576 0.719346 0.725729 0.731762 0.737479 0.742907 0.748071 0.752993 0.757694 0.762191
          0.766501 0.770639 0.774617 0.778446 0.78214 0.785701 0.789141 0.792473 0.795712 0.798865 0.801943 0.804955
          0.807908 0.810814 0.813682 0.816524 0.819351 0.822178 0.825022 0.827906 0.830857 0.833914 0.837127 0.840571
          0.844358 0.84867 0.853824 0.407781 0.493776 0.537033 0.567268 0.590604 0.609681 0.625877 0.639988 0.652514
          0.663785 0.67403 0.683418 0.692075 0.700097 0.707563 0.714537 0.72107 0.727209 0.73299 0.738447 0.743608
          0.748501 0.753148 0.757569 0.76178 0.7658 0.769639 0.773306 0.776816 0.78019 0.783444 0.786588 0.789633
          0.79259 0.795469 0.798278 0.801028 0.803727 0.806386 0.809012 0.811618 0.814214 0.816812 0.819427 0.822077
          0.824782 0.827571 0.830478 0.833552 0.83686 0.840504 0.407636 0.491391 0.531872 0.560991 0.58408 0.603285
          0.619741 0.634132 0.646906 0.658372 0.668752 0.678212 0.686878 0.694852 0.702215 0.709036 0.715371 0.721271
          0.726774 0.731919 0.736739 0.741263 0.745519 0.749517 0.75328 0.756831 0.760195 0.763399 0.766459 0.769388
          0.772201 0.77491 0.777528 0.780065 0.782532 0.784939 0.787296 0.789611 0.791893 0.79415 0.796393 0.798629
          0.800868 0.80312 0.805398 0.807715 0.810087 0.812535 0.815086 0.817774 0.820647 0.407503 0.491367 0.531022
          0.559136 0.581327 0.599773 0.615564 0.629332 0.641484 0.652299 0.661984 0.670696 0.67856 0.685681 0.692144
[...]
      <CellData Scalars="process rank">
        <DataArray type="Float32" Name="process rank" NumberOfComponents="1" format="ascii">
          0 0 0 0 0 0 0 0 0 0 0 0
          0 0 0 0 0 0 0 0 0 0 0 0
          0 0 0 0 0 0 0 0 0 0 0 0
          0 0 0 0 0 0 0 0 0 0 0 0
          0 0 0 0 0 0 0 0 0 0 0 0
          0 0 0 0 0 0 0 0 0 0 0 0
          0 0 0 0 0 0 0 0 0 0 0 0
          0 0 0 0 0 0 0 0 0 0 0 0
          0 0 0 0 0 0 0 0 0 0 0 0
          0 0 0 0 0 0 0 0 0 0 0 0
          0 0 0 0 0 0 0 0 0 0 0 0
          0 0 0 0 0 0 0 0 0 0 0 0
          0 0 0 0 0 0 0 0 0 0 0 0
          0 0 0 0 0 0 0 0 0 0 0 0
          0 0 0 0 0 0 0 0 0 0 0 0
          0 0 0 0 0 0 0 0 0 0 0 0
          0 0 0 0 0 0 0 0 0 0 0 0
          0 0 0 0 0 0 0 0 0 0 0 0
          0 0 0 0 0 0 0 0 0 0 0 0
          0 0 0 0 0 0 0 0 0 0 0 0
          0 0 0 0 0 0 0 0 0 0 0 0
          0 0 0 0 0 0 0 0 0 0 0 0
          0 0 0 0 0 0 0 0 0 0 0 0
          0 0 0 0 0 0 0 0 0 0 0 0
          0 0 0 0 0 0 0 0 0 0 0 0
          0 0 0 0 0 0 0 0 0 0 0 0
          0 0 0 0 0 0 0 0 0 0 0 0
          0 0 0 0 0 0 0 0 0 0 0 0
          0 0 0 0 0 0 0 0 0 0 0 0
          0 0 0 0 0 0 0 0 0 0 0 0
          0 0 0 0 0 0 0 0 0 0 0 0
          0 0 0 0 0 0 0 0 0 0 0 0
          0 0 0 0 0 0 0 0 0 0 0 0
          0 0 0 0 0 0 0 0 0 0 0 0
          0 0 0 0 0 0 0 0 0 0 0 0
          0 0 0 0 0 0 0 0 0 0 0 0
          0 0 0 0 0 0 0 0 0 0 0 0
          0 0 0 0 0 0 0 0 0 0 0 0
          0 0 0 0 0 0 0 0 0 0 0 0
          0 0 0 0 0 0 0 0 0 0 0 0
          0 0 0 0 0 0 0 0 0 0 0 0
          0 0 0 0 0 0 0 0 0 0 0 0
          0 0 0 0 0 0 0 0 0 0 0 0
          0 0 0 0 0 0 0 0 0 0 0 0
          0 0 0 0 0 0 0 0 0 0 0 0
          0 0 0 0 0 0 0 0 0 0 0 0
          0 0 0 0 0 0 0 0 0 0 0 0
          0 0 0 0 0 0 0 0 0 0 0 0
          0 0 0 0 0 0 0 0 0 0 0 0
          0 0 0 0 0 0 0 0 0 0 0 0
          0 0 0 0 0 0 0 0 0 0 0 0
          0 0 0 0 0 0 0 0 0 0 0 0
          0 0 0 0 0 0 0 0 0 0 0 0
          0 0 0 0 0 0 0 0 0 0 0 0
          0 0 0 0 0 0 0 0 0 0 0 0
          0 0 0 0 0 0 0 0 0 0 0 0
          0 0 0 0 0 0 0 0 0 0 0 0
          0 0 0 0 0 0 0 0 0 0 0 0
          0 0 0 0 0 0 0 0 0 0 0 0
          0 0 0 0 0 0 0 0 0 0 0 0
          0 0 0 0 0 0 0 0 0 0 0 0
          0 0 0 0 0 0 0 0 0 0 0 0
          0 0 0 0 0 0 0 0 0 0 0 0
          0 0 0 0 0 0 0 0 0 0 0 0
          0 0 0 0 0 0 0 0 0 0 0 0
          0 0 0 0 0 0 0 0 0 0 0 0
          0 0 0 0 0 0 0 0 0 0 0 0
          0 0 0 0 0 0 0 0 0 0 0 0
          0 0 0 0 0 0 0 0 0 0 0 0
          0 0 0 0 0 0 0 0 0 0 0 0
          0 0 0 0 0 0 0 0 0 0 0 0
          0 0 0 0 0 0 0 0 0 0 0 0
          0 0 0 0 0 0 0 0 0 0 0 0
          0 0 0 0 0 0 0 0 0 0 0 0
          0 0 0 0 0 0 0 0 0 0 0 0
          0 0 0 0 0 0 0 0 0 0 0 0
          0 0 0 0 0 0 0 0 0 0 0 0
          0 0 0 0 0 0 0 0 0 0 0 0
          0 0 0 0 0 0 0 0 0 0 0 0
          0 0 0 0 0 0 0 0 0 0 0 0
          0 0 0 0 0 0 0 0 0 0 0 0
          0 0 0 0 0 0 0 0 0 0 0 0
          0 0 0 0 0 0 0 0 0 0 0 0
          0 0 0 0
        </DataArray>
      </CellData>
      <Points>
        <DataArray type="Float32" Name="Coordinates" NumberOfComponents="3" format="ascii">
          0.2 0 0 5.2 0 0 0.2 3 0 5.2 3 0
          10.2 0 0 10.2 3 0 15.2 0 0 15.2 3 0
          20.2 0 0 20.2 3 0 25.2 0 0 25.2 3 0
          30.2 0 0 30.2 3 0 35.2 0 0 35.2 3 0
          40.2 0 0 40.2 3 0 45.2 0 0 45.2 3 0
          50.2 0 0 50.2 3 0 55.2 0 0 55.2 3 0
          60.2 0 0 60.2 3 0 65.2 0 0 65.2 3 0
          70.2 0 0 70.2 3 0 75.2 0 0 75.2 3 0
          80.2 0 0 80.2 3 0 85.2 0 0 85.2 3 0
          90.2 0 0 90.2 3 0 95.2 0 0 95.2 3 0
          100.2 0 0 100.2 3 0 105.2 0 0 105.2 3 0
          110.2 0 0 110.2 3 0 115.2 0 0 115.2 3 0
          120.2 0 0 120.2 3 0 125.2 0 0 125.2 3 0
          130.2 0 0 130.2 3 0 135.2 0 0 135.2 3 0
          140.2 0 0 140.2 3 0 145.2 0 0 145.2 3 0
          150.2 0 0 150.2 3 0 155.2 0 0 155.2 3 0
          160.2 0 0 160.2 3 0 165.2 0 0 165.2 3 0
          170.2 0 0 170.2 3 0 175.2 0 0 175.2 3 0
          180.2 0 0 180.2 3 0 185.2 0 0 185.2 3 0
          190.2 0 0 190.2 3 0 195.2 0 0 195.2 3 0
          200.2 0 0 200.2 3 0 205.2 0 0 205.2 3 0
          210.2 0 0 210.2 3 0 215.2 0 0 215.2 3 0
          220.2 0 0 220.2 3 0 225.2 0 0 225.2 3 0
          230.2 0 0 230.2 3 0 235.2 0 0 235.2 3 0
          240.2 0 0 240.2 3 0 245.2 0 0 245.2 3 0
          250.2 0 0 250.2 3 0 0.2 6 0 5.2 6 0
          10.2 6 0 15.2 6 0 20.2 6 0 25.2 6 0
          30.2 6 0 35.2 6 0 40.2 6 0 45.2 6 0
          50.2 6 0 55.2 6 0 60.2 6 0 65.2 6 0
          70.2 6 0 75.2 6 0 80.2 6 0 85.2 6 0
          90.2 6 0 95.2 6 0 100.2 6 0 105.2 6 0
          110.2 6 0 115.2 6 0 120.2 6 0 125.2 6 0
          130.2 6 0 135.2 6 0 140.2 6 0 145.2 6 0
          150.2 6 0 155.2 6 0 160.2 6 0 165.2 6 0
          170.2 6 0 175.2 6 0 180.2 6 0 185.2 6 0
          190.2 6 0 195.2 6 0 200.2 6 0 205.2 6 0
          210.2 6 0 215.2 6 0 220.2 6 0 225.2 6 0
          230.2 6 0 235.2 6 0 240.2 6 0 245.2 6 0
          250.2 6 0 0.2 9 0 5.2 9 0 10.2 9 0
          15.2 9 0 20.2 9 0 25.2 9 0 30.2 9 0
          35.2 9 0 40.2 9 0 45.2 9 0 50.2 9 0
          55.2 9 0 60.2 9 0 65.2 9 0 70.2 9 0
          75.2 9 0 80.2 9 0 85.2 9 0 90.2 9 0
          95.2 9 0 100.2 9 0 105.2 9 0 110.2 9 0
          115.2 9 0 120.2 9 0 125.2 9 0 130.2 9 0
          135.2 9 0 140.2 9 0 145.2 9 0 150.2 9 0
          155.2 9 0 160.2 9 0 165.2 9 0 170.2 9 0
          175.2 9 0 180.2 9 0 185.2 9 0 190.2 9 0
          195.2 9 0 200.2 9 0 205.2 9 0 210.2 9 0
          215.2 9 0 220.2 9 0 225.2 9 0 230.2 9 0
          235.2 9 0 240.2 9 0 245.2 9 0 250.2 9 0
          0.2 12 0 5.2 12 0 10.2 12 0 15.2 12 0
          20.2 12 0 25.2 12 0 30.2 12 0 35.2 12 0
          40.2 12 0 45.2 12 0 50.2 12 0 55.2 12 0
          60.2 12 0 65.2 12 0 70.2 12 0 75.2 12 0
          80.2 12 0 85.2 12 0 90.2 12 0 95.2 12 0
          100.2 12 0 105.2 12 0 110.2 12 0 115.2 12 0
          120.2 12 0 125.2 12 0 130.2 12 0 135.2 12 0
          140.2 12 0 145.2 12 0 150.2 12 0 155.2 12 0
          160.2 12 0 165.2 12 0 170.2 12 0 175.2 12 0
          180.2 12 0 185.2 12 0 190.2 12 0 195.2 12 0
          200.2 12 0 205.2 12 0 210.2 12 0 215.2 12 0
          220.2 12 0 225.2 12 0 230.2 12 0 235.2 12 0
          240.2 12 0 245.2 12 0 250.2 12 0 0.2 15 0
          5.2 15 0 10.2 15 0 15.2 15 0 20.2 15 0
          25.2 15 0 30.2 15 0 35.2 15 0 40.2 15 0
          45.2 15 0 50.2 15 0 55.2 15 0 60.2 15 0
          65.2 15 0 70.2 15 0 75.2 15 0 80.2 15 0
          85.2 15 0 90.2 15 0 95.2 15 0 100.2 15 0
          105.2 15 0 110.2 15 0 115.2 15 0 120.2 15 0
          125.2 15 0 130.2 15 0 135.2 15 0 140.2 15 0
          145.2 15 0 150.2 15 0 155.2 15 0 160.2 15 0
          165.2 15 0 170.2 15 0 175.2 15 0 180.2 15 0
          185.2 15 0 190.2 15 0 195.2 15 0 200.2 15 0
          205.2 15 0 210.2 15 0 215.2 15 0 220.2 15 0
          225.2 15 0 230.2 15 0 235.2 15 0 240.2 15 0
          245.2 15 0 250.2 15 0 0.2 18 0 5.2 18 0
          10.2 18 0 15.2 18 0 20.2 18 0 25.2 18 0
          30.2 18 0 35.2 18 0 40.2 18 0 45.2 18 0
          50.2 18 0 55.2 18 0 60.2 18 0 65.2 18 0
          70.2 18 0 75.2 18 0 80.2 18 0 85.2 18 0
          90.2 18 0 95.2 18 0 100.2 18 0 105.2 18 0
          110.2 18 0 115.2 18 0 120.2 18 0 125.2 18 0
          130.2 18 0 135.2 18 0 140.2 18 0 145.2 18 0
          150.2 18 0 155.2 18 0 160.2 18 0 165.2 18 0
          170.2 18 0 175.2 18 0 180.2 18 0 185.2 18 0
          190.2 18 0 195.2 18 0 200.2 18 0 205.2 18 0
          210.2 18 0 215.2 18 0 220.2 18 0 225.2 18 0
          230.2 18 0 235.2 18 0 240.2 18 0 245.2 18 0
          250.2 18 0 0.2 21 0 5.2 21 0 10.2 21 0
          15.2 21 0 20.2 21 0 25.2 21 0 30.2 21 0
          35.2 21 0 40.2 21 0 45.2 21 0 50.2 21 0
          55.2 21 0 60.2 21 0 65.2 21 0 70.2 21 0
          75.2 21 0 80.2 21 0 85.2 21 0 90.2 21 0
          95.2 21 0 100.2 21 0 105.2 21 0 110.2 21 0
          115.2 21 0 120.2 21 0 125.2 21 0 130.2 21 0
          135.2 21 0 140.2 21 0 145.2 21 0 150.2 21 0
          155.2 21 0 160.2 21 0 165.2 21 0 170.2 21 0
          175.2 21 0 180.2 21 0 185.2 21 0 190.2 21 0
          195.2 21 0 200.2 21 0 205.2 21 0 210.2 21 0
          215.2 21 0 220.2 21 0 225.2 21 0 230.2 21 0
          235.2 21 0 240.2 21 0 245.2 21 0 250.2 21 0
          0.2 24 0 5.2 24 0 10.2 24 0 15.2 24 0
          20.2 24 0 25.2 24 0 30.2 24 0 35.2 24 0
          40.2 24 0 45.2 24 0 50.2 24 0 55.2 24 0
          60.2 24 0 65.2 24 0 70.2 24 0 75.2 24 0
          80.2 24 0 85.2 24 0 90.2 24 0 95.2 24 0
          100.2 24 0 105.2 24 0 110.2 24 0 115.2 24 0
          120.2 24 0 125.2 24 0 130.2 24 0 135.2 24 0
          140.2 24 0 145.2 24 0 150.2 24 0 155.2 24 0
          160.2 24 0 165.2 24 0 170.2 24 0 175.2 24 0
          180.2 24 0 185.2 24 0 190.2 24 0 195.2 24 0
          200.2 24 0 205.2 24 0 210.2 24 0 215.2 24 0
          220.2 24 0 225.2 24 0 230.2 24 0 235.2 24 0
          240.2 24 0 245.2 24 0 250.2 24 0 0.2 27 0
          5.2 27 0 10.2 27 0 15.2 27 0 20.2 27 0
          25.2 27 0 30.2 27 0 35.2 27 0 40.2 27 0
          45.2 27 0 50.2 27 0 55.2 27 0 60.2 27 0
          65.2 27 0 70.2 27 0 75.2 27 0 80.2 27 0
          85.2 27 0 90.2 27 0 95.2 27 0 100.2 27 0
          105.2 27 0 110.2 27 0 115.2 27 0 120.2 27 0
          125.2 27 0 130.2 27 0 135.2 27 0 140.2 27 0
          145.2 27 0 150.2 27 0 155.2 27 0 160.2 27 0
          165.2 27 0 170.2 27 0 175.2 27 0 180.2 27 0
          185.2 27 0 190.2 27 0 195.2 27 0 200.2 27 0
          205.2 27 0 210.2 27 0 215.2 27 0 220.2 27 0
          225.2 27 0 230.2 27 0 235.2 27 0 240.2 27 0
          245.2 27 0 250.2 27 0 0.2 30 0 5.2 30 0
          10.2 30 0 15.2 30 0 20.2 30 0 25.2 30 0
          30.2 30 0 35.2 30 0 40.2 30 0 45.2 30 0
          50.2 30 0 55.2 30 0 60.2 30 0 65.2 30 0
          70.2 30 0 75.2 30 0 80.2 30 0 85.2 30 0
          90.2 30 0 95.2 30 0 100.2 30 0 105.2 30 0
          110.2 30 0 115.2 30 0 120.2 30 0 125.2 30 0
          130.2 30 0 135.2 30 0 140.2 30 0 145.2 30 0
          150.2 30 0 155.2 30 0 160.2 30 0 165.2 30 0
          170.2 30 0 175.2 30 0 180.2 30 0 185.2 30 0
          190.2 30 0 195.2 30 0 200.2 30 0 205.2 30 0
          210.2 30 0 215.2 30 0 220.2 30 0 225.2 30 0
          230.2 30 0 235.2 30 0 240.2 30 0 245.2 30 0
          250.2 30 0 0.2 33 0 5.2 33 0 10.2 33 0
          15.2 33 0 20.2 33 0 25.2 33 0 30.2 33 0
          35.2 33 0 40.2 33 0 45.2 33 0 50.2 33 0
          55.2 33 0 60.2 33 0 65.2 33 0 70.2 33 0
          75.2 33 0 80.2 33 0 85.2 33 0 90.2 33 0
          95.2 33 0 100.2 33 0 105.2 33 0 110.2 33 0
          115.2 33 0 120.2 33 0 125.2 33 0 130.2 33 0
          135.2 33 0 140.2 33 0 145.2 33 0 150.2 33 0
          155.2 33 0 160.2 33 0 165.2 33 0 170.2 33 0
          175.2 33 0 180.2 33 0 185.2 33 0 190.2 33 0
          195.2 33 0 200.2 33 0 205.2 33 0 210.2 33 0
          215.2 33 0 220.2 33 0 225.2 33 0 230.2 33 0
          235.2 33 0 240.2 33 0 245.2 33 0 250.2 33 0
          0.2 36 0 5.2 36 0 10.2 36 0 15.2 36 0
          20.2 36 0 25.2 36 0 30.2 36 0 35.2 36 0
          40.2 36 0 45.2 36 0 50.2 36 0 55.2 36 0
          60.2 36 0 65.2 36 0 70.2 36 0 75.2 36 0
          80.2 36 0 85.2 36 0 90.2 36 0 95.2 36 0
          100.2 36 0 105.2 36 0 110.2 36 0 115.2 36 0
          120.2 36 0 125.2 36 0 130.2 36 0 135.2 36 0
          140.2 36 0 145.2 36 0 150.2 36 0 155.2 36 0
          160.2 36 0 165.2 36 0 170.2 36 0 175.2 36 0
          180.2 36 0 185.2 36 0 190.2 36 0 195.2 36 0
          200.2 36 0 205.2 36 0 210.2 36 0 215.2 36 0
          220.2 36 0 225.2 36 0 230.2 36 0 235.2 36 0
          240.2 36 0 245.2 36 0 250.2 36 0 0.2 39 0
          5.2 39 0 10.2 39 0 15.2 39 0 20.2 39 0
          25.2 39 0 30.2 39 0 35.2 39 0 40.2 39 0
          45.2 39 0 50.2 39 0 55.2 39 0 60.2 39 0
          65.2 39 0 70.2 39 0 75.2 39 0 80.2 39 0
          85.2 39 0 90.2 39 0 95.2 39 0 100.2 39 0
          105.2 39 0 110.2 39 0 115.2 39 0 120.2 39 0
          125.2 39 0 130.2 39 0 135.2 39 0 140.2 39 0
          145.2 39 0 150.2 39 0 155.2 39 0 160.2 39 0
          165.2 39 0 170.2 39 0 175.2 39 0 180.2 39 0
          185.2 39 0 190.2 39 0 195.2 39 0 200.2 39 0
          205.2 39 0 210.2 39 0 215.2 39 0 220.2 39 0
          225.2 39 0 230.2 39 0 235.2 39 0 240.2 39 0
          245.2 39 0 250.2 39 0 0.2 42 0 5.2 42 0
          10.2 42 0 15.2 42 0 20.2 42 0 25.2 42 0
          30.2 42 0 35.2 42 0 40.2 42 0 45.2 42 0
          50.2 42 0 55.2 42 0 60.2 42 0 65.2 42 0
          70.2 42 0 75.2 42 0 80.2 42 0 85.2 42 0
          90.2 42 0 95.2 42 0 100.2 42 0 105.2 42 0
          110.2 42 0 115.2 42 0 120.2 42 0 125.2 42 0
          130.2 42 0 135.2 42 0 140.2 42 0 145.2 42 0
          150.2 42 0 155.2 42 0 160.2 42 0 165.2 42 0
          170.2 42 0 175.2 42 0 180.2 42 0 185.2 42 0
          190.2 42 0 195.2 42 0 200.2 42 0 205.2 42 0
          210.2 42 0 215.2 42 0 220.2 42 0 225.2 42 0
          230.2 42 0 235.2 42 0 240.2 42 0 245.2 42 0
          250.2 42 0 0.2 45 0 5.2 45 0 10.2 45 0
          15.2 45 0 20.2 45 0 25.2 45 0 30.2 45 0
          35.2 45 0 40.2 45 0 45.2 45 0 50.2 45 0
          55.2 45 0 60.2 45 0 65.2 45 0 70.2 45 0
          75.2 45 0 80.2 45 0 85.2 45 0 90.2 45 0
          95.2 45 0 100.2 45 0 105.2 45 0 110.2 45 0
          115.2 45 0 120.2 45 0 125.2 45 0 130.2 45 0
          135.2 45 0 140.2 45 0 145.2 45 0 150.2 45 0
          155.2 45 0 160.2 45 0 165.2 45 0 170.2 45 0
          175.2 45 0 180.2 45 0 185.2 45 0 190.2 45 0
          195.2 45 0 200.2 45 0 205.2 45 0 210.2 45 0
          215.2 45 0 220.2 45 0 225.2 45 0 230.2 45 0
          235.2 45 0 240.2 45 0 245.2 45 0 250.2 45 0
          0.2 48 0 5.2 48 0 10.2 48 0 15.2 48 0
          20.2 48 0 25.2 48 0 30.2 48 0 35.2 48 0
          40.2 48 0 45.2 48 0 50.2 48 0 55.2 48 0
          60.2 48 0 65.2 48 0 70.2 48 0 75.2 48 0
          80.2 48 0 85.2 48 0 90.2 48 0 95.2 48 0
          100.2 48 0 105.2 48 0 110.2 48 0 115.2 48 0
          120.2 48 0 125.2 48 0 130.2 48 0 135.2 48 0
          140.2 48 0 145.2 48 0 150.2 48 0 155.2 48 0
          160.2 48 0 165.2 48 0 170.2 48 0 175.2 48 0
          180.2 48 0 185.2 48 0 190.2 48 0 195.2 48 0
          200.2 48 0 205.2 48 0 210.2 48 0 215.2 48 0
          220.2 48 0 225.2 48 0 230.2 48 0 235.2 48 0
          240.2 48 0 245.2 48 0 250.2 48 0 0.2 51 0
          5.2 51 0 10.2 51 0 15.2 51 0 20.2 51 0
          25.2 51 0 30.2 51 0 35.2 51 0 40.2 51 0
          45.2 51 0 50.2 51 0 55.2 51 0 60.2 51 0
          65.2 51 0 70.2 51 0 75.2 51 0 80.2 51 0
          85.2 51 0 90.2 51 0 95.2 51 0 100.2 51 0
          105.2 51 0 110.2 51 0 115.2 51 0 120.2 51 0
          125.2 51 0 130.2 51 0 135.2 51 0 140.2 51 0
          145.2 51 0 150.2 51 0 155.2 51 0 160.2 51 0
          165.2 51 0 170.2 51 0 175.2 51 0 180.2 51 0
          185.2 51 0 190.2 51 0 195.2 51 0 200.2 51 0
          205.2 51 0 210.2 51 0 215.2 51 0 220.2 51 0
          225.2 51 0 230.2 51 0 235.2 51 0 240.2 51 0
          245.2 51 0 250.2 51 0 0.2 54 0 5.2 54 0
          10.2 54 0 15.2 54 0 20.2 54 0 25.2 54 0
          30.2 54 0 35.2 54 0 40.2 54 0 45.2 54 0
          50.2 54 0 55.2 54 0 60.2 54 0 65.2 54 0
          70.2 54 0 75.2 54 0 80.2 54 0 85.2 54 0
          90.2 54 0 95.2 54 0 100.2 54 0 105.2 54 0
          110.2 54 0 115.2 54 0 120.2 54 0 125.2 54 0
          130.2 54 0 135.2 54 0 140.2 54 0 145.2 54 0
          150.2 54 0 155.2 54 0 160.2 54 0 165.2 54 0
          170.2 54 0 175.2 54 0 180.2 54 0 185.2 54 0
          190.2 54 0 195.2 54 0 200.2 54 0 205.2 54 0
          210.2 54 0 215.2 54 0 220.2 54 0 225.2 54 0
          230.2 54 0 235.2 54 0 240.2 54 0 245.2 54 0
          250.2 54 0 0.2 57 0 5.2 57 0 10.2 57 0
          15.2 57 0 20.2 57 0 25.2 57 0 30.2 57 0
          35.2 57 0 40.2 57 0 45.2 57 0 50.2 57 0
          55.2 57 0 60.2 57 0 65.2 57 0 70.2 57 0
          75.2 57 0 80.2 57 0 85.2 57 0 90.2 57 0
          95.2 57 0 100.2 57 0 105.2 57 0 110.2 57 0
          115.2 57 0 120.2 57 0 125.2 57 0 130.2 57 0
          135.2 57 0 140.2 57 0 145.2 57 0 150.2 57 0
          155.2 57 0 160.2 57 0 165.2 57 0 170.2 57 0
          175.2 57 0 180.2 57 0 185.2 57 0 190.2 57 0
          195.2 57 0 200.2 57 0 205.2 57 0 210.2 57 0
          215.2 57 0 220.2 57 0 225.2 57 0 230.2 57 0
          235.2 57 0 240.2 57 0 245.2 57 0 250.2 57 0
          0.2 60 0 5.2 60 0 10.2 60 0 15.2 60 0
          20.2 60 0 25.2 60 0 30.2 60 0 35.2 60 0
          40.2 60 0 45.2 60 0 50.2 60 0 55.2 60 0
          60.2 60 0 65.2 60 0 70.2 60 0 75.2 60 0
          80.2 60 0 85.2 60 0 90.2 60 0 95.2 60 0
          100.2 60 0 105.2 60 0 110.2 60 0 115.2 60 0
          120.2 60 0 125.2 60 0 130.2 60 0 135.2 60 0
          140.2 60 0 145.2 60 0 150.2 60 0 155.2 60 0
          160.2 60 0 165.2 60 0 170.2 60 0 175.2 60 0
          180.2 60 0 185.2 60 0 190.2 60 0 195.2 60 0
          200.2 60 0 205.2 60 0 210.2 60 0 215.2 60 0
          220.2 60 0 225.2 60 0 230.2 60 0 235.2 60 0
          240.2 60 0 245.2 60 0 250.2 60 0
        </DataArray>
      </Points>
      <Cells>
        <DataArray type="Int32" Name="connectivity" NumberOfComponents="1" format="ascii">
          0 1 3 2 1 4 5 3 4 6 7 5
          6 8 9 7 8 10 11 9 10 12 13 11
          12 14 15 13 14 16 17 15 16 18 19 17
          18 20 21 19 20 22 23 21 22 24 25 23
          24 26 27 25 26 28 29 27 28 30 31 29
          30 32 33 31 32 34 35 33 34 36 37 35
          36 38 39 37 38 40 41 39 40 42 43 41
          42 44 45 43 44 46 47 45 46 48 49 47
          48 50 51 49 50 52 53 51 52 54 55 53
          54 56 57 55 56 58 59 57 58 60 61 59
          60 62 63 61 62 64 65 63 64 66 67 65
          66 68 69 67 68 70 71 69 70 72 73 71
          72 74 75 73 74 76 77 75 76 78 79 77
          78 80 81 79 80 82 83 81 82 84 85 83
          84 86 87 85 86 88 89 87 88 90 91 89
          90 92 93 91 92 94 95 93 94 96 97 95
          96 98 99 97 98 100 101 99 2 3 103 102
          3 5 104 103 5 7 105 104 7 9 106 105
          9 11 107 106 11 13 108 107 13 15 109 108
          15 17 110 109 17 19 111 110 19 21 112 111
          21 23 113 112 23 25 114 113 25 27 115 114
          27 29 116 115 29 31 117 116 31 33 118 117
          33 35 119 118 35 37 120 119 37 39 121 120
          39 41 122 121 41 43 123 122 43 45 124 123
          45 47 125 124 47 49 126 125 49 51 127 126
          51 53 128 127 53 55 129 128 55 57 130 129
          57 59 131 130 59 61 132 131 61 63 133 132
          63 65 134 133 65 67 135 134 67 69 136 135
          69 71 137 136 71 73 138 137 73 75 139 138
          75 77 140 139 77 79 141 140 79 81 142 141
          81 83 143 142 83 85 144 143 85 87 145 144
          87 89 146 145 89 91 147 146 91 93 148 147
          93 95 149 148 95 97 150 149 97 99 151 150
          99 101 152 151 102 103 154 153 103 104 155 154
          104 105 156 155 105 106 157 156 106 107 158 157
          107 108 159 158 108 109 160 159 109 110 161 160
          110 111 162 161 111 112 163 162 112 113 164 163
          113 114 165 164 114 115 166 165 115 116 167 166
          116 117 168 167 117 118 169 168 118 119 170 169
          119 120 171 170 120 121 172 171 121 122 173 172
          122 123 174 173 123 124 175 174 124 125 176 175
          125 126 177 176 126 127 178 177 127 128 179 178
          128 129 180 179 129 130 181 180 130 131 182 181
          131 132 183 182 132 133 184 183 133 134 185 184
          134 135 186 185 135 136 187 186 136 137 188 187
          137 138 189 188 138 139 190 189 139 140 191 190
          140 141 192 191 141 142 193 192 142 143 194 193
          143 144 195 194 144 145 196 195 145 146 197 196
          146 147 198 197 147 148 199 198 148 149 200 199
          149 150 201 200 150 151 202 201 151 152 203 202
          153 154 205 204 154 155 206 205 155 156 207 206
          156 157 208 207 157 158 209 208 158 159 210 209
          159 160 211 210 160 161 212 211 161 162 213 212
          162 163 214 213 163 164 215 214 164 165 216 215
          165 166 217 216 166 167 218 217 167 168 219 218
          168 169 220 219 169 170 221 220 170 171 222 221