<?xml version="1.0"?>
<VTKFile type="UnstructuredGrid" version="0.1" byte_order="LittleEndian">
  <UnstructuredGrid>
    <Piece NumberOfCells="1000" NumberOfPoints="1071">
      <PointData Scalars="S_liq" Vectors="velocity_liq (m/s)">
        <DataArray type="Float32" Name="S_liq" NumberOfComponents="1" format="ascii">
          0.999518 0.999518 0.999967 0.999967 0.999518 0.999968 0.999518 0.999968 0.999517 0.999969 0.999517 0.99997
          0.999516 0.999972 0.999515 0.999974 0.999514 0.999977 0.999514 0.99998 0.999512 0.99998 0.999514 0.999959
          0.999514 0.999971 0.999513 0.999973 0.999513 0.999969 0.999511 0.999965 0.99951 0.999961 0.999508 0.999957
          0.999507 0.999956 0.999506 0.999955 0.999505 0.999957 0.999504 0.999958 0.999503 0.999955 0.999503 0.999951
          0.999502 0.999948 0.999502 0.999945 0.999503 0.999942 0.999503 0.999943 0.999504 0.999941 0.999505 0.999939
          0.999506 0.999937 0.999507 0.999935 0.999509 0.999931 0.999511 0.99993 0.999514 0.999928 0.999517 0.999927
          0.99952 0.999926 0.999523 0.999923 0.999527 0.999922 0.999531 0.99992 0.999535 0.99992 0.99954 0.999918
          0.999545 0.999918 0.99955 0.999916 0.999555 0.999916 0.999561 0.999916 0.999566 0.999916 0.999573 0.999915
          0.999579 0.999915 0.999585 0.999914 0.999591 0.999912 0.983071 0.983101 0.983164 0.98327 0.983445 0.983731
          0.984202 0.984988 0.98634 0.988787 0.993958 0.999844 0.999961 0.999973 0.999978 0.999983 0.99999 0.999998
          1 1 0.999987 0.999967 0.999968 0.999968 0.999969 0.999967 0.999971 0.999964 0.999962 0.999959
          0.999957 0.999952 0.999963 0.999958 0.999957 0.999955 0.999946 0.999951 0.99995 0.999955 0.999946 0.999948
          0.999944 0.999949 0.999944 0.999945 0.999942 0.999946 0.99994 0.999941 0.999941 0.975776 0.975832 0.975948
          0.976133 0.976414 0.976832 0.977444 0.978321 0.979524 0.981011 0.982422 0.982885 0.982995 0.983127 0.983356
          0.983747 0.984413 0.985582 0.987798 0.993364 0.99977 1 1 1 1 1 0.999994
          0.999966 0.999972 0.999973 0.999972 0.99998 0.999962 0.999961 0.99996 0.999956 0.99997 0.999964 0.999964
          0.999949 0.999956 0.999956 0.999963 0.999954 0.999955 0.999954 0.99996 0.99995 0.999951 0.999956 0.999951
          0.968328 0.968405 0.96856 0.968799 0.969149 0.969651 0.970349 0.971278 0.972434 0.973703 0.974801 0.975406
          0.975736 0.976047 0.976455 0.977029 0.977845 0.978996 0.980541 0.9823 0.983107 0.983566 0.984212 0.985355
          0.9876 0.993924 0.999868 1 1 1 1 0.999969 0.999969 0.999973 0.999971 0.99998
          0.999963 0.999961 0.999954 0.999973 0.999969 0.999968 0.999953 0.999962 0.999963 0.999967 0.999952 0.999957
          0.999968 0.999956 0.999955 0.959049 0.959403 0.960039 0.96075 0.961408 0.962173 0.963093 0.964159 0.965326
          0.966477 0.967443 0.968115 0.968628 0.969171 0.969853 0.970721 0.971785 0.973006 0.974279 0.975422 0.976168
          0.976803 0.977612 0.978769 0.98039 0.982369 0.983396 0.984235 0.985538 0.98803 0.996998 0.999999 1
          1 1 0.99997 0.999971 0.99997 0.999981 0.999965 0.999965 0.999958 0.999975 0.999969 0.999969
          0.999955 0.999969 0.999976 0.999958 0.99996 0.999978 0.897571 0.899753 0.903597 0.90893 0.91569 0.923555
          0.932107 0.940729 0.948591 0.954806 0.958737 0.960466 0.96144 0.96233 0.963266 0.964307 0.965452 0.966646
          0.967812 0.968885 0.969832 0.97077 0.971807 0.972987 0.974299 0.975603 0.976594 0.977584 0.978878 0.980638
          0.982796 0.984024 0.985479 0.9881 0.997439 1 1 1 0.999971 0.99997 0.999971 0.999982
          0.999966 0.999965 0.999961 0.999976 0.99997 0.999954 0.999963 0.999974 0.999964 0.842417 0.843891 0.846281
          0.849422 0.853342 0.858136 0.863959 0.871037 0.87967 0.890207 0.902926 0.917569 0.932101 0.944175 0.952427
          0.956614 0.958508 0.959962 0.96122 0.962367 0.963468 0.964582 0.965746 0.966972 0.968246 0.969503 0.970661
          0.971818 0.973095 0.974526 0.976008 0.977285 0.978738 0.980636 0.98297 0.984599 0.987048 0.994136 0.999964
          1 1 0.999965 0.99997 0.999972 0.999981 0.999966 0.999961 0.999975 0.999974 0.999962 0.999975
          0.811122 0.812433 0.814488 0.817053 0.820072 0.823531 0.827437 0.831819 0.836734 0.842283 0.848629 0.856026
          0.864853 0.875644 0.889091 0.905789 0.924248 0.940057 0.950153 0.95453 0.956513 0.958026 0.959367 0.960667
          0.961976 0.963282 0.964564 0.965855 0.967204 0.968622 0.970054 0.971435 0.972883 0.974481 0.976182 0.97781
          0.979809 0.9824 0.98432 0.986923 0.994792 0.999992 1 1 0.999973 0.99997 0.999985 0.999969
          0.999963 0.999979 0.999979 0.784894 0.786332 0.788546 0.791231 0.794294 0.797684 0.801371 0.805337 0.809574
          0.81409 0.818906 0.824064 0.829635 0.835728 0.842523 0.850308 0.859539 0.870892 0.88532 0.903761 0.923976
          0.940334 0.949366 0.952895 0.954988 0.95664 0.9581 0.959511 0.96094 0.962404 0.963886 0.96537 0.966899
          0.968505 0.970164 0.971838 0.973643 0.975592 0.977452 0.979649 0.982519 0.984744 0.98781 0.997903 1
          1 0.999965 0.999966 0.999982 0.999974 0.999973 0.757711 0.759454 0.762094 0.765217 0.768693 0.772448
          0.776434 0.780614 0.784958 0.789449 0.794078 0.798846 0.803764 0.808857 0.814165 0.819746 0.825689 0.832122
          0.839248 0.847398 0.857095 0.869146 0.884816 0.9048 0.92557 0.940966 0.948223 0.951477 0.953724 0.955559
          0.957217 0.958825 0.960445 0.962108 0.963814 0.965561 0.967385 0.969295 0.97124 0.97332 0.975564 0.977721
          0.980201 0.983277 0.986324 0.994666 0.999998 1 0.999985 0.999971 0.999981 0.725626 0.727892 0.731258
          0.735129 0.739325 0.743752 0.748344 0.753056 0.75785 0.762699 0.767587 0.772505 0.777453 0.78244 0.787479
          0.792593 0.797814 0.803188 0.808772 0.814639 0.820884 0.827644 0.835131 0.843695 0.853891 0.866606 0.883236
          0.903548 0.92397 0.93889 0.946112 0.949847 0.952563 0.954789 0.956765 0.958659 0.960565 0.96252 0.964527
          0.966621 0.968819 0.971086 0.973507 0.976102 0.978842 0.982306 0.985529 0.992195 0.999925 1 1
          0.682604 0.685796 0.690416 0.695546 0.700933 0.706461 0.712052 0.717658 0.723241 0.728778 0.734256 0.739675
          0.745044 0.750377 0.755691 0.761009 0.766357 0.771767 0.777267 0.782887 0.788653 0.794592 0.800734 0.807115
          0.813788 0.820846 0.828461 0.836937 0.846755 0.858691 0.873946 0.892529 0.912869 0.930929 0.942172 0.947686
          0.95134 0.954261 0.95678 0.959107 0.961396 0.96372 0.966133 0.968677 0.971419 0.974485 0.977658 0.981378
          0.984965 0.991511 0.999896 0.613796 0.618827 0.626024 0.633876 0.641933 0.649961 0.657834 0.665499 0.672933
          0.680134 0.687115 0.693915 0.700578 0.707135 0.71361 0.72002 0.726387 0.732733 0.739065 0.745375 0.75165
          0.757874 0.764036 0.770135 0.776187 0.782233 0.788338 0.794588 0.801092 0.807979 0.815419 0.823654 0.833036
          0.844073 0.85759 0.874124 0.893058 0.91293 0.930637 0.942795 0.949197 0.95343 0.95689 0.959959 0.962869
          0.965785 0.968767 0.972016 0.975605 0.979995 0.984287 0.587244 0.594331 0.603522 0.612753 0.621721 0.630343
          0.638588 0.646451 0.653945 0.661065 0.66781 0.674196 0.680238 0.685951 0.691346 0.696436 0.701236 0.705768
          0.710056 0.714131 0.71803 0.721812 0.725586 0.729517 0.733809 0.738636 0.744076 0.750118 0.756673 0.763604
          0.770763 0.778037 0.785395 0.792842 0.800396 0.808159 0.816378 0.82548 0.835992 0.848611 0.864076 0.882032
          0.901519 0.920715 0.937173 0.949042 0.955845 0.960278 0.964158 0.967828 0.971299 0.560636 0.571377 0.583952
          0.595815 0.606922 0.617304 0.626996 0.636032 0.644448 0.652285 0.65959 0.666396 0.672725 0.678596 0.684029
          0.689047 0.693675 0.69794 0.701866 0.705482 0.708814 0.711886 0.714722 0.717364 0.719857 0.722242 0.724558
          0.726846 0.729147 0.731506 0.733968 0.736628 0.739806 0.744021 0.74957 0.756352 0.764008 0.772103 0.780337
          0.788629 0.796927 0.805152 0.813529 0.822634 0.833017 0.845294 0.860169 0.87746 0.896182 0.915004 0.932532
          0.52596 0.54476 0.561531 0.577285 0.591445 0.604127 0.615543 0.625858 0.635198 0.643684 0.651425 0.658487
          0.664911 0.670739 0.676016 0.680789 0.685103 0.689001 0.692525 0.695712 0.698597 0.701205 0.70358 0.705757
          0.70776 0.709609 0.711323 0.71292 0.714415 0.715825 0.717168 0.718472 0.719777 0.721135 0.722597 0.724207
          0.726007 0.728034 0.730369 0.733454 0.738177 0.744903 0.753207 0.762316 0.771592 0.780732 0.789458 0.797501
          0.805225 0.813245 0.822157 0.343348 0.488819 0.530624 0.556281 0.575482 0.591117 0.604359 0.61579 0.625768
          0.634573 0.642378 0.649291 0.655403 0.660803 0.665572 0.669786 0.673512 0.676813 0.679742 0.682346 0.684661
          0.686741 0.688624 0.690336 0.691899 0.693334 0.694658 0.695884 0.697026 0.698097 0.699107 0.700066 0.700983
          0.701865 0.702719 0.703551 0.70437 0.70519 0.706037 0.706955 0.708 0.709226 0.710677 0.712394 0.714425
          0.716914 0.720691 0.726828 0.735288 0.745263 0.755775 0.303823 0.464991 0.511989 0.541485 0.56312 0.580073
          0.593864 0.605355 0.615092 0.623401 0.630508 0.636595 0.641816 0.646302 0.650167 0.653507 0.656402 0.658922
          0.661123 0.663053 0.664769 0.666307 0.667693 0.66895 0.670096 0.671147 0.672118 0.67302 0.673864 0.67466
          0.675414 0.676135 0.676829 0.6775 0.678154 0.678796 0.679431 0.680063 0.680699 0.681341 0.681995 0.682664
          0.683353 0.684073 0.68484 0.685683 0.686647 0.687787 0.689158 0.690804 0.692784 0.28964 0.462016 0.508086
          0.534969 0.554178 0.569024 0.580897 0.59055 0.598464 0.604989 0.61039 0.614882 0.618633 0.621783 0.624443
          0.626704 0.628634 0.630298 0.631748 0.63303 0.634169 0.635191 0.636112 0.636951 0.637719 0.638429 0.63909
          0.639711 0.6403 0.640862 0.641404 0.641931 0.642447 0.642957 0.643466 0.643975 0.64449 0.645013 0.645546
[...]
      <CellData Scalars="process rank">
        <DataArray type="Float32" Name="process rank" NumberOfComponents="1" format="ascii">
          0 0 0 0 0 0 0 0 0 0 0 0
          0 0 0 0 0 0 0 0 0 0 0 0
          0 0 0 0 0 0 0 0 0 0 0 0
          0 0 0 0 0 0 0 0 0 0 0 0
          0 0 0 0 0 0 0 0 0 0 0 0
          0 0 0 0 0 0 0 0 0 0 0 0
          0 0 0 0 0 0 0 0 0 0 0 0
          0 0 0 0 0 0 0 0 0 0 0 0
          0 0 0 0 0 0 0 0 0 0 0 0
          0 0 0 0 0 0 0 0 0 0 0 0
          0 0 0 0 0 0 0 0 0 0 0 0
          0 0 0 0 0 0 0 0 0 0 0 0
          0 0 0 0 0 0 0 0 0 0 0 0
          0 0 0 0 0 0 0 0 0 0 0 0
          0 0 0 0 0 0 0 0 0 0 0 0
          0 0 0 0 0 0 0 0 0 0 0 0
          0 0 0 0 0 0 0 0 0 0 0 0
          0 0 0 0 0 0 0 0 0 0 0 0
          0 0 0 0 0 0 0 0 0 0 0 0
          0 0 0 0 0 0 0 0 0 0 0 0
          0 0 0 0 0 0 0 0 0 0 0 0
          0 0 0 0 0 0 0 0 0 0 0 0
          0 0 0 0 0 0 0 0 0 0 0 0
          0 0 0 0 0 0 0 0 0 0 0 0
          0 0 0 0 0 0 0 0 0 0 0 0
          0 0 0 0 0 0 0 0 0 0 0 0
          0 0 0 0 0 0 0 0 0 0 0 0
          0 0 0 0 0 0 0 0 0 0 0 0
          0 0 0 0 0 0 0 0 0 0 0 0
          0 0 0 0 0 0 0 0 0 0 0 0
          0 0 0 0 0 0 0 0 0 0 0 0
          0 0 0 0 0 0 0 0 0 0 0 0
          0 0 0 0 0 0 0 0 0 0 0 0
          0 0 0 0 0 0 0 0 0 0 0 0
          0 0 0 0 0 0 0 0 0 0 0 0
          0 0 0 0 0 0 0 0 0 0 0 0
          0 0 0 0 0 0 0 0 0 0 0 0
          0 0 0 0 0 0 0 0 0 0 0 0
          0 0 0 0 0 0 0 0 0 0 0 0
          0 0 0 0 0 0 0 0 0 0 0 0
          0 0 0 0 0 0 0 0 0 0 0 0
          0 0 0 0 0 0 0 0 0 0 0 0
          0 0 0 0 0 0 0 0 0 0 0 0
          0 0 0 0 0 0 0 0 0 0 0 0
          0 0 0 0 0 0 0 0 0 0 0 0
          0 0 0 0 0 0 0 0 0 0 0 0
          0 0 0 0 0 0 0 0 0 0 0 0
          0 0 0 0 0 0 0 0 0 0 0 0
          0 0 0 0 0 0 0 0 0 0 0 0
          0 0 0 0 0 0 0 0 0 0 0 0
          0 0 0 0 0 0 0 0 0 0 0 0
          0 0 0 0 0 0 0 0 0 0 0 0
          0 0 0 0 0 0 0 0 0 0 0 0
          0 0 0 0 0 0 0 0 0 0 0 0
          0 0 0 0 0 0 0 0 0 0 0 0
          0 0 0 0 0 0 0 0 0 0 0 0
          0 0 0 0 0 0 0 0 0 0 0 0
          0 0 0 0 0 0 0 0 0 0 0 0
          0 0 0 0 0 0 0 0 0 0 0 0
          0 0 0 0 0 0 0 0 0 0 0 0
          0 0 0 0 0 0 0 0 0 0 0 0
          0 0 0 0 0 0 0 0 0 0 0 0
          0 0 0 0 0 0 0 0 0 0 0 0
          0 0 0 0 0 0 0 0 0 0 0 0
          0 0 0 0 0 0 0 0 0 0 0 0
          0 0 0 0 0 0 0 0 0 0 0 0
          0 0 0 0 0 0 0 0 0 0 0 0
          0 0 0 0 0 0 0 0 0 0 0 0
          0 0 0 0 0 0 0 0 0 0 0 0
          0 0 0 0 0 0 0 0 0 0 0 0
          0 0 0 0 0 0 0 0 0 0 0 0
          0 0 0 0 0 0 0 0 0 0 0 0
          0 0 0 0 0 0 0 0 0 0 0 0
          0 0 0 0 0 0 0 0 0 0 0 0
          0 0 0 0 0 0 0 0 0 0 0 0
          0 0 0 0 0 0 0 0 0 0 0 0
          0 0 0 0 0 0 0 0 0 0 0 0
          0 0 0 0 0 0 0 0 0 0 0 0
          0 0 0 0 0 0 0 0 0 0 0 0
          0 0 0 0 0 0 0 0 0 0 0 0
          0 0 0 0 0 0 0 0 0 0 0 0
          0 0 0 0 0 0 0 0 0 0 0 0
          0 0 0 0 0 0 0 0 0 0 0 0
          0 0 0 0
        </DataArray>
      </CellData>
      <Points>
        <DataArray type="Float32" Name="Coordinates" NumberOfComponents="3" format="ascii">
          0.2 0 0 5.2 0 0 0.2 3 0 5.2 3 0
          10.2 0 0 10.2 3 0 15.2 0 0 15.2 3 0
          20.2 0 0 20.2 3 0 25.2 0 0 25.2 3 0
          30.2 0 0 30.2 3 0 35.2 0 0 35.2 3 0
          40.2 0 0 40.2 3 0 45.2 0 0 45.2 3 0
          50.2 0 0 50.2 3 0 55.2 0 0 55.2 3 0
          60.2 0 0 60.2 3 0 65.2 0 0 65.2 3 0
          70.2 0 0 70.2 3 0 75.2 0 0 75.2 3 0
          80.2 0 0 80.2 3 0 85.2 0 0 85.2 3 0
          90.2 0 0 90.2 3 0 95.2 0 0 95.2 3 0
          100.2 0 0 100.2 3 0 105.2 0 0 105.2 3 0
          110.2 0 0 110.2 3 0 115.2 0 0 115.2 3 0
          120.2 0 0 120.2 3 0 125.2 0 0 125.2 3 0
          130.2 0 0 130.2 3 0 135.2 0 0 135.2 3 0
          140.2 0 0 140.2 3 0 145.2 0 0 145.2 3 0
          150.2 0 0 150.2 3 0 155.2 0 0 155.2 3 0
          160.2 0 0 160.2 3 0 165.2 0 0 165.2 3 0
          170.2 0 0 170.2 3 0 175.2 0 0 175.2 3 0
          180.2 0 0 180.2 3 0 185.2 0 0 185.2 3 0
          190.2 0 0 190.2 3 0 195.2 0 0 195.2 3 0
          200.2 0 0 200.2 3 0 205.2 0 0 205.2 3 0
          210.2 0 0 210.2 3 0 215.2 0 0 215.2 3 0
          220.2 0 0 220.2 3 0 225.2 0 0 225.2 3 0
          230.2 0 0 230.2 3 0 235.2 0 0 235.2 3 0
          240.2 0 0 240.2 3 0 245.2 0 0 245.2 3 0
          250.2 0 0 250.2 3 0 0.2 6 0 5.2 6 0
          10.2 6 0 15.2 6 0 20.2 6 0 25.2 6 0
          30.2 6 0 35.2 6 0 40.2 6 0 45.2 6 0
          50.2 6 0 55.2 6 0 60.2 6 0 65.2 6 0
          70.2 6 0 75.2 6 0 80.2 6 0 85.2 6 0
          90.2 6 0 95.2 6 0 100.2 6 0 105.2 6 0
          110.2 6 0 115.2 6 0 120.2 6 0 125.2 6 0
          130.2 6 0 135.2 6 0 140.2 6 0 145.2 6 0
          150.2 6 0 155.2 6 0 160.2 6 0 165.2 6 0
          170.2 6 0 175.2 6 0 180.2 6 0 185.2 6 0
          190.2 6 0 195.2 6 0 200.2 6 0 205.2 6 0
          210.2 6 0 215.2 6 0 220.2 6 0 225.2 6 0
          230.2 6 0 235.2 6 0 240.2 6 0 245.2 6 0
          250.2 6 0 0.2 9 0 5.2 9 0 10.2 9 0
          15.2 9 0 20.2 9 0 25.2 9 0 30.2 9 0
          35.2 9 0 40.2 9 0 45.2 9 0 50.2 9 0
          55.2 9 0 60.2 9 0 65.2 9 0 70.2 9 0
          75.2 9 0 80.2 9 0 85.2 9 0 90.2 9 0
          95.2 9 0 100.2 9 0 105.2 9 0 110.2 9 0
          115.2 9 0 120.2 9 0 125.2 9 0 130.2 9 0
          135.2 9 0 140.2 9 0 145.2 9 0 150.2 9 0
          155.2 9 0 160.2 9 0 165.2 9 0 170.2 9 0
          175.2 9 0 180.2 9 0 185.2 9 0 190.2 9 0
          195.2 9 0 200.2 9 0 205.2 9 0 210.2 9 0
          215.2 9 0 220.2 9 0 225.2 9 0 230.2 9 0
          235.2 9 0 240.2 9 0 245.2 9 0 250.2 9 0
          0.2 12 0 5.2 12 0 10.2 12 0 15.2 12 0
          20.2 12 0 25.2 12 0 30.2 12 0 35.2 12 0
          40.2 12 0 45.2 12 0 50.2 12 0 55.2 12 0
          60.2 12 0 65.2 12 0 70.2 12 0 75.2 12 0
          80.2 12 0 85.2 12 0 90.2 12 0 95.2 12 0
          100.2 12 0 105.2 12 0 110.2 12 0 115.2 12 0
          120.2 12 0 125.2 12 0 130.2 12 0 135.2 12 0
          140.2 12 0 145.2 12 0 150.2 12 0 155.2 12 0
          160.2 12 0 165.2 12 0 170.2 12 0 175.2 12 0
          180.2 12 0 185.2 12 0 190.2 12 0 195.2 12 0
          200.2 12 0 205.2 12 0 210.2 12 0 215.2 12 0
          220.2 12 0 225.2 12 0 230.2 12 0 235.2 12 0
          240.2 12 0 245.2 12 0 250.2 12 0 0.2 15 0
          5.2 15 0 10.2 15 0 15.2 15 0 20.2 15 0
          25.2 15 0 30.2 15 0 35.2 15 0 40.2 15 0
          45.2 15 0 50.2 15 0 55.2 15 0 60.2 15 0
          65.2 15 0 70.2 15 0 75.2 15 0 80.2 15 0
          85.2 15 0 90.2 15 0 95.2 15 0 100.2 15 0
          105.2 15 0 110.2 15 0 115.2 15 0 120.2 15 0
          125.2 15 0 130.2 15 0 135.2 15 0 140.2 15 0
          145.2 15 0 150.2 15 0 155.2 15 0 160.2 15 0
          165.2 15 0 170.2 15 0 175.2 15 0 180.2 15 0
          185.2 15 0 190.2 15 0 195.2 15 0 200.2 15 0
          205.2 15 0 210.2 15 0 215.2 15 0 220.2 15 0
          225.2 15 0 230.2 15 0 235.2 15 0 240.2 15 0
          245.2 15 0 250.2 15 0 0.2 18 0 5.2 18 0
          10.2 18 0 15.2 18 0 20.2 18 0 25.2 18 0
          30.2 18 0 35.2 18 0 40.2 18 0 45.2 18 0
          50.2 18 0 55.2 18 0 60.2 18 0 65.2 18 0
          70.2 18 0 75.2 18 0 80.2 18 0 85.2 18 0
          90.2 18 0 95.2 18 0 100.2 18 0 105.2 18 0
          110.2 18 0 115.2 18 0 120.2 18 0 125.2 18 0
          130.2 18 0 135.2 18 0 140.2 18 0 145.2 18 0
          150.2 18 0 155.2 18 0 160.2 18 0 165.2 18 0
          170.2 18 0 175.2 18 0 180.2 18 0 185.2 18 0
          190.2 18 0 195.2 18 0 200.2 18 0 205.2 18 0
          210.2 18 0 215.2 18 0 220.2 18 0 225.2 18 0
          230.2 18 0 235.2 18 0 240.2 18 0 245.2 18 0
          250.2 18 0 0.2 21 0 5.2 21 0 10.2 21 0
          15.2 21 0 20.2 21 0 25.2 21 0 30.2 21 0
          35.2 21 0 40.2 21 0 45.2 21 0 50.2 21 0
          55.2 21 0 60.2 21 0 65.2 21 0 70.2 21 0
          75.2 21 0 80.2 21 0 85.2 21 0 90.2 21 0
          95.2 21 0 100.2 21 0 105.2 21 0 110.2 21 0
          115.2 21 0 120.2 21 0 125.2 21 0 130.2 21 0
          135.2 21 0 140.2 21 0 145.2 21 0 150.2 21 0
          155.2 21 0 160.2 21 0 165.2 21 0 170.2 21 0
          175.2 21 0 180.2 21 0 185.2 21 0 190.2 21 0
          195.2 21 0 200.2 21 0 205.2 21 0 210.2 21 0
          215.2 21 0 220.2 21 0 225.2 21 0 230.2 21 0
          235.2 21 0 240.2 21 0 245.2 21 0 250.2 21 0
          0.2 24 0 5.2 24 0 10.2 24 0 15.2 24 0
          20.2 24 0 25.2 24 0 30.2 24 0 35.2 24 0
          40.2 24 0 45.2 24 0 50.2 24 0 55.2 24 0
          60.2 24 0 65.2 24 0 70.2 24 0 75.2 24 0
          80.2 24 0 85.2 24 0 90.2 24 0 95.2 24 0
          100.2 24 0 105.2 24 0 110.2 24 0 115.2 24 0
          120.2 24 0 125.2 24 0 130.2 24 0 135.2 24 0
          140.2 24 0 145.2 24 0 150.2 24 0 155.2 24 0
          160.2 24 0 165.2 24 0 170.2 24 0 175.2 24 0
          180.2 24 0 185.2 24 0 190.2 24 0 195.2 24 0
          200.2 24 0 205.2 24 0 210.2 24 0 215.2 24 0
          220.2 24 0 225.2 24 0 230.2 24 0 235.2 24 0
          240.2 24 0 245.2 24 0 250.2 24 0 0.2 27 0
          5.2 27 0 10.2 27 0 15.2 27 0 20.2 27 0
          25.2 27 0 30.2 27 0 35.2 27 0 40.2 27 0
          45.2 27 0 50.2 27 0 55.2 27 0 60.2 27 0
          65.2 27 0 70.2 27 0 75.2 27 0 80.2 27 0
          85.2 27 0 90.2 27 0 95.2 27 0 100.2 27 0
          105.2 27 0 110.2 27 0 115.2 27 0 120.2 27 0
          125.2 27 0 130.2 27 0 135.2 27 0 140.2 27 0
          145.2 27 0 150.2 27 0 155.2 27 0 160.2 27 0
          165.2 27 0 170.2 27 0 175.2 27 0 180.2 27 0
          185.2 27 0 190.2 27 0 195.2 27 0 200.2 27 0
          205.2 27 0 210.2 27 0 215.2 27 0 220.2 27 0
          225.2 27 0 230.2 27 0 235.2 27 0 240.2 27 0
          245.2 27 0 250.2 27 0 0.2 30 0 5.2 30 0
          10.2 30 0 15.2 30 0 20.2 30 0 25.2 30 0
          30.2 30 0 35.2 30 0 40.2 30 0 45.2 30 0
          50.2 30 0 55.2 30 0 60.2 30 0 65.2 30 0
          70.2 30 0 75.2 30 0 80.2 30 0 85.2 30 0
          90.2 30 0 95.2 30 0 100.2 30 0 105.2 30 0
          110.2 30 0 115.2 30 0 120.2 30 0 125.2 30 0
          130.2 30 0 135.2 30 0 140.2 30 0 145.2 30 0
          150.2 30 0 155.2 30 0 160.2 30 0 165.2 30 0
          170.2 30 0 175.2 30 0 180.2 30 0 185.2 30 0
          190.2 30 0 195.2 30 0 200.2 30 0 205.2 30 0
          210.2 30 0 215.2 30 0 220.2 30 0 225.2 30 0
          230.2 30 0 235.2 30 0 240.2 30 0 245.2 30 0
          250.2 30 0 0.2 33 0 5.2 33 0 10.2 33 0
          15.2 33 0 20.2 33 0 25.2 33 0 30.2 33 0
          35.2 33 0 40.2 33 0 45.2 33 0 50.2 33 0
          55.2 33 0 60.2 33 0 65.2 33 0 70.2 33 0
          75.2 33 0 80.2 33 0 85.2 33 0 90.2 33 0
          95.2 33 0 100.2 33 0 105.2 33 0 110.2 33 0
          115.2 33 0 120.2 33 0 125.2 33 0 130.2 33 0
          135.2 33 0 140.2 33 0 145.2 33 0 150.2 33 0
          155.2 33 0 160.2 33 0 165.2 33 0 170.2 33 0
          175.2 33 0 180.2 33 0 185.2 33 0 190.2 33 0
          195.2 33 0 200.2 33 0 205.2 33 0 210.2 33 0
          215.2 33 0 220.2 33 0 225.2 33 0 230.2 33 0
          235.2 33 0 240.2 33 0 245.2 33 0 250.2 33 0
          0.2 36 0 5.2 36 0 10.2 36 0 15.2 36 0
          20.2 36 0 25.2 36 0 30.2 36 0 35.2 36 0
          40.2 36 0 45.2 36 0 50.2 36 0 55.2 36 0
          60.2 36 0 65.2 36 0 70.2 36 0 75.2 36 0
          80.2 36 0 85.2 36 0 90.2 36 0 95.2 36 0
          100.2 36 0 105.2 36 0 110.2 36 0 115.2 36 0
          120.2 36 0 125.2 36 0 130.2 36 0 135.2 36 0
          140.2 36 0 145.2 36 0 150.2 36 0 155.2 36 0
          160.2 36 0 165.2 36 0 170.2 36 0 175.2 36 0
          180.2 36 0 185.2 36 0 190.2 36 0 195.2 36 0
          200.2 36 0 205.2 36 0 210.2 36 0 215.2 36 0
          220.2 36 0 225.2 36 0 230.2 36 0 235.2 36 0
          240.2 36 0 245.2 36 0 250.2 36 0 0.2 39 0
          5.2 39 0 10.2 39 0 15.2 39 0 20.2 39 0
          25.2 39 0 30.2 39 0 35.2 39 0 40.2 39 0
          45.2 39 0 50.2 39 0 55.2 39 0 60.2 39 0
          65.2 39 0 70.2 39 0 75.2 39 0 80.2 39 0
          85.2 39 0 90.2 39 0 95.2 39 0 100.2 39 0
          105.2 39 0 110.2 39 0 115.2 39 0 120.2 39 0
          125.2 39 0 130.2 39 0 135.2 39 0 140.2 39 0
          145.2 39 0 150.2 39 0 155.2 39 0 160.2 39 0
          165.2 39 0 170.2 39 0 175.2 39 0 180.2 39 0
          185.2 39 0 190.2 39 0 195.2 39 0 200.2 39 0
          205.2 39 0 210.2 39 0 215.2 39 0 220.2 39 0
          225.2 39 0 230.2 39 0 235.2 39 0 240.2 39 0
          245.2 39 0 250.2 39 0 0.2 42 0 5.2 42 0
          10.2 42 0 15.2 42 0 20.2 42 0 25.2 42 0
          30.2 42 0 35.2 42 0 40.2 42 0 45.2 42 0
          50.2 42 0 55.2 42 0 60.2 42 0 65.2 42 0
          70.2 42 0 75.2 42 0 80.2 42 0 85.2 42 0
          90.2 42 0 95.2 42 0 100.2 42 0 105.2 42 0
          110.2 42 0 115.2 42 0 120.2 42 0 125.2 42 0
          130.2 42 0 135.2 42 0 140.2 42 0 145.2 42 0
          150.2 42 0 155.2 42 0 160.2 42 0 165.2 42 0
          170.2 42 0 175.2 42 0 180.2 42 0 185.2 42 0
          190.2 42 0 195.2 42 0 200.2 42 0 205.2 42 0
          210.2 42 0 215.2 42 0 220.2 42 0 225.2 42 0
          230.2 42 0 235.2 42 0 240.2 42 0 245.2 42 0
          250.2 42 0 0.2 45 0 5.2 45 0 10.2 45 0
          15.2 45 0 20.2 45 0 25.2 45 0 30.2 45 0
          35.2 45 0 40.2 45 0 45.2 45 0 50.2 45 0
          55.2 45 0 60.2 45 0 65.2 45 0 70.2 45 0
          75.2 45 0 80.2 45 0 85.2 45 0 90.2 45 0
          95.2 45 0 100.2 45 0 105.2 45 0 110.2 45 0
          115.2 45 0 120.2 45 0 125.2 45 0 130.2 45 0
          135.2 45 0 140.2 45 0 145.2 45 0 150.2 45 0
          155.2 45 0 160.2 45 0 165.2 45 0 170.2 45 0
          175.2 45 0 180.2 45 0 185.2 45 0 190.2 45 0
          195.2 45 0 200.2 45 0 205.2 45 0 210.2 45 0
          215.2 45 0 220.2 45 0 225.2 45 0 230.2 45 0
          235.2 45 0 240.2 45 0 245.2 45 0 250.2 45 0
          0.2 48 0 5.2 48 0 10.2 48 0 15.2 48 0
          20.2 48 0 25.2 48 0 30.2 48 0 35.2 48 0
          40.2 48 0 45.2 48 0 50.2 48 0 55.2 48 0
          60.2 48 0 65.2 48 0 70.2 48 0 75.2 48 0
          80.2 48 0 85.2 48 0 90.2 48 0 95.2 48 0
          100.2 48 0 105.2 48 0 110.2 48 0 115.2 48 0
          120.2 48 0 125.2 48 0 130.2 48 0 135.2 48 0
          140.2 48 0 145.2 48 0 150.2 48 0 155.2 48 0
          160.2 48 0 165.2 48 0 170.2 48 0 175.2 48 0
          180.2 48 0 185.2 48 0 190.2 48 0 195.2 48 0
          200.2 48 0 205.2 48 0 210.2 48 0 215.2 48 0
          220.2 48 0 225.2 48 0 230.2 48 0 235.2 48 0
          240.2 48 0 245.2 48 0 250.2 48 0 0.2 51 0
          5.2 51 0 10.2 51 0 15.2 51 0 20.2 51 0
          25.2 51 0 30.2 51 0 35.2 51 0 40.2 51 0
          45.2 51 0 50.2 51 0 55.2 51 0 60.2 51 0
          65.2 51 0 70.2 51 0 75.2 51 0 80.2 51 0
          85.2 51 0 90.2 51 0 95.2 51 0 100.2 51 0
          105.2 51 0 110.2 51 0 115.2 51 0 120.2 51 0
          125.2 51 0 130.2 51 0 135.2 51 0 140.2 51 0
          145.2 51 0 150.2 51 0 155.2 51 0 160.2 51 0
          165.2 51 0 170.2 51 0 175.2 51 0 180.2 51 0
          185.2 51 0 190.2 51 0 195.2 51 0 200.2 51 0
          205.2 51 0 210.2 51 0 215.2 51 0 220.2 51 0
          225.2 51 0 230.2 51 0 235.2 51 0 240.2 51 0
          245.2 51 0 250.2 51 0 0.2 54 0 5.2 54 0
          10.2 54 0 15.2 54 0 20.2 54 0 25.2 54 0
          30.2 54 0 35.2 54 0 40.2 54 0 45.2 54 0
          50.2 54 0 55.2 54 0 60.2 54 0 65.2 54 0
          70.2 54 0 75.2 54 0 80.2 54 0 85.2 54 0
          90.2 54 0 95.2 54 0 100.2 54 0 105.2 54 0
          110.2 54 0 115.2 54 0 120.2 54 0 125.2 54 0
          130.2 54 0 135.2 54 0 140.2 54 0 145.2 54 0
          150.2 54 0 155.2 54 0 160.2 54 0 165.2 54 0
          170.2 54 0 175.2 54 0 180.2 54 0 185.2 54 0
          190.2 54 0 195.2 54 0 200.2 54 0 205.2 54 0
          210.2 54 0 215.2 54 0 220.2 54 0 225.2 54 0
          230.2 54 0 235.2 54 0 240.2 54 0 245.2 54 0
          250.2 54 0 0.2 57 0 5.2 57 0 10.2 57 0
          15.2 57 0 20.2 57 0 25.2 57 0 30.2 57 0
          35.2 57 0 40.2 57 0 45.2 57 0 50.2 57 0
          55.2 57 0 60.2 57 0 65.2 57 0 70.2 57 0
          75.2 57 0 80.2 57 0 85.2 57 0 90.2 57 0
          95.2 57 0 100.2 57 0 105.2 57 0 110.2 57 0
          115.2 57 0 120.2 57 0 125.2 57 0 130.2 57 0
          135.2 57 0 140.2 57 0 145.2 57 0 150.2 57 0
          155.2 57 0 160.2 57 0 165.2 57 0 170.2 57 0
          175.2 57 0 180.2 57 0 185.2 57 0 190.2 57 0
          195.2 57 0 200.2 57 0 205.2 57 0 210.2 57 0
          215.2 57 0 220.2 57 0 225.2 57 0 230.2 57 0
          235.2 57 0 240.2 57 0 245.2 57 0 250.2 57 0
          0.2 60 0 5.2 60 0 10.2 60 0 15.2 60 0
          20.2 60 0 25.2 60 0 30.2 60 0 35.2 60 0
          40.2 60 0 45.2 60 0 50.2 60 0 55.2 60 0
          60.2 60 0 65.2 60 0 70.2 60 0 75.2 60 0
          80.2 60 0 85.2 60 0 90.2 60 0 95.2 60 0
          100.2 60 0 105.2 60 0 110.2 60 0 115.2 60 0
          120.2 60 0 125.2 60 0 130.2 60 0 135.2 60 0
          140.2 60 0 145.2 60 0 150.2 60 0 155.2 60 0
          160.2 60 0 165.2 60 0 170.2 60 0 175.2 60 0
          180.2 60 0 185.2 60 0 190.2 60 0 195.2 60 0
          200.2 60 0 205.2 60 0 210.2 60 0 215.2 60 0
          220.2 60 0 225.2 60 0 230.2 60 0 235.2 60 0
          240.2 60 0 245.2 60 0 250.2 60 0
        </DataArray>
      </Points>
      <Cells>
        <DataArray type="Int32" Name="connectivity" NumberOfComponents="1" format="ascii">
          0 1 3 2 1 4 5 3 4 6 7 5
          6 8 9 7 8 10 11 9 10 12 13 11
          12 14 15 13 14 16 17 15 16 18 19 17
          18 20 21 19 20 22 23 21 22 24 25 23
          24 26 27 25 26 28 29 27 28 30 31 29
          30 32 33 31 32 34 35 33 34 36 37 35
          36 38 39 37 38 40 41 39 40 42 43 41
          42 44 45 43 44 46 47 45 46 48 49 47
          48 50 51 49 50 52 53 51 52 54 55 53
          54 56 57 55 56 58 59 57 58 60 61 59
          60 62 63 61 62 64 65 63 64 66 67 65
          66 68 69 67 68 70 71 69 70 72 73 71
          72 74 75 73 74 76 77 75 76 78 79 77
          78 80 81 79 80 82 83 81 82 84 85 83
          84 86 87 85 86 88 89 87 88 90 91 89
          90 92 93 91 92 94 95 93 94 96 97 95
          96 98 99 97 98 100 101 99 2 3 103 102
          3 5 104 103 5 7 105 104 7 9 106 105
          9 11 107 106 11 13 108 107 13 15 109 108
          15 17 110 109 17 19 111 110 19 21 112 111
          21 23 113 112 23 25 114 113 25 27 115 114
          27 29 116 115 29 31 117 116 31 33 118 117
          33 35 119 118 35 37 120 119 37 39 121 120
          39 41 122 121 41 43 123 122 43 45 124 123
          45 47 125 124 47 49 126 125 49 51 127 126
          51 53 128 127 53 55 129 128 55 57 130 129
          57 59 131 130 59 61 132 131 61 63 133 132
          63 65 134 133 65 67 135 134 67 69 136 135
          69 71 137 136 71 73 138 137 73 75 139 138
          75 77 140 139 77 79 141 140 79 81 142 141
          81 83 143 142 83 85 144 143 85 87 145 144
          87 89 146 145 89 91 147 146 91 93 148 147
          93 95 149 148 95 97 150 149 97 99 151 150
          99 101 152 151 102 103 154 153 103 104 155 154
          104 105 156 155 105 106 157 156 106 107 158 157
          107 108 159 158 108 109 160 159 109 110 161 160
          110 111 162 161 111 112 163 162 112 113 164 163
          113 114 165 164 114 115 166 165 115 116 167 166
          116 117 168 167 117 118 169 168 118 119 170 169
          119 120 171 170 120 121 172 171 121 122 173 172
          122 123 174 173 123 124 175 174 124 125 176 175
          125 126 177 176 126 127 178 177 127 128 179 178
          128 129 180 179 129 130 181 180 130 131 182 181
          131 132 183 182 132 133 184 183 133 134 185 184
          134 135 186 185 135 136 187 186 136 137 188 187
          137 138 189 188 138 139 190 189 139 140 191 190
          140 141 192 191 141 142 193 192 142 143 194 193
          143 144 195 194 144 145 196 195 145 146 197 196
          146 147 198 197 147 148 199 198 148 149 200 199
          149 150 201 200 150 151 202 201 151 152 203 202
          153 154 205 204 154 155 206 205 155 156 207 206
          156 157 208 207 157 158 209 208 158 159 210 209
          159 160 211 210 160 161 212 211 161 162 213 212
          162 163 214 213 163 164 215 214 164 165 216 215
          165 166 217 216 166 167 218 217 167 168 219 218
          168 169 220 219 169 170 221 220 170 171 222 221