<?xml version="1.0"?>
<VTKFile type="UnstructuredGrid" version="0.1" byte_order="LittleEndian">
  <UnstructuredGrid>
    <Piece NumberOfCells="1000" NumberOfPoints="1071">
      <PointData Scalars="S_liq" Vectors="velocity_liq (m/s)">
        <DataArray type="Float32" Name="S_liq" NumberOfComponents="1" format="ascii">
          0.999528 0.999528 0.99996 0.99996 0.999528 0.999961 0.999528 0.999961 0.999528 0.999962 0.999527 0.999963
          0.999526 0.999965 0.999525 0.999968 0.999525 0.999971 0.999524 0.999976 0.999523 0.999978 0.999525 0.999955
          0.999525 0.999968 0.999524 0.99997 0.999524 0.999965 0.999522 0.999961 0.999521 0.999957 0.999519 0.999953
          0.999518 0.999951 0.999517 0.999949 0.999516 0.999952 0.999516 0.999953 0.999515 0.99995 0.999515 0.999946
          0.999515 0.999942 0.999515 0.999939 0.999515 0.999936 0.999516 0.999937 0.999517 0.999935 0.999518 0.999932
          0.99952 0.99993 0.999522 0.999928 0.999524 0.999924 0.999527 0.999922 0.99953 0.99992 0.999533 0.999919
          0.999536 0.999918 0.99954 0.999915 0.999545 0.999913 0.999549 0.999911 0.999554 0.999911 0.999559 0.99991
          0.999564 0.999909 0.99957 0.999907 0.999576 0.999908 0.999582 0.999907 0.999588 0.999907 0.999595 0.999905
          0.999602 0.999906 0.999609 0.999904 0.999616 0.999903 0.984691 0.984712 0.984756 0.984831 0.984957 0.985169
          0.985526 0.98614 0.987231 0.989274 0.993723 0.999797 0.999953 0.999967 0.999972 0.999978 0.999986 0.999995
          0.999998 1 0.999988 0.999963 0.999965 0.999964 0.999965 0.999962 0.999967 0.99996 0.999959 0.999954
          0.999952 0.999947 0.999959 0.999953 0.999953 0.99995 0.99994 0.999946 0.999945 0.99995 0.99994 0.999942
          0.999938 0.999943 0.999937 0.999939 0.999935 0.99994 0.999934 0.999934 0.999934 0.978391 0.978427 0.978502
          0.978624 0.978818 0.979122 0.979594 0.98031 0.981353 0.982736 0.984167 0.984662 0.984736 0.984827 0.984995
          0.985297 0.985831 0.986802 0.988699 0.993169 0.999685 0.999996 0.999998 0.999999 1 1 0.999998
          0.999961 0.999968 0.999969 0.999968 0.999978 0.999958 0.999957 0.999956 0.999951 0.999967 0.99996 0.99996
          0.999943 0.999952 0.999951 0.99996 0.999948 0.99995 0.999949 0.999956 0.999944 0.999945 0.999951 0.999946
          0.972789 0.972847 0.972964 0.973144 0.97341 0.973793 0.974336 0.975075 0.976013 0.97705 0.977914 0.978292
          0.978464 0.978653 0.978936 0.979375 0.980046 0.981046 0.982448 0.984071 0.984838 0.985196 0.985724 0.986694
          0.988651 0.993645 0.999798 0.999999 1 1 1 0.999964 0.999964 0.999969 0.999967 0.999979
          0.999959 0.999956 0.999949 0.99997 0.999965 0.999964 0.999947 0.999958 0.999959 0.999963 0.999946 0.999952
          0.999964 0.99995 0.999951 0.963303 0.963465 0.963791 0.964299 0.965041 0.966068 0.967399 0.968945 0.970448
          0.971597 0.972353 0.972794 0.9731 0.973421 0.973838 0.974406 0.975158 0.976098 0.977159 0.978133 0.978726
          0.979223 0.979902 0.980922 0.982393 0.984172 0.985083 0.985764 0.986868 0.98908 0.996548 0.999991 1
          1 1 0.999964 0.999966 0.999965 0.999976 0.999962 0.999961 0.999953 0.999971 0.999965 0.999965
          0.99995 0.999965 0.999973 0.999954 0.999956 0.999976 0.954462 0.954694 0.955142 0.955806 0.956714 0.957868
          0.959211 0.960602 0.961862 0.962928 0.963962 0.965112 0.966415 0.967739 0.968833 0.969676 0.970521 0.971411
          0.972285 0.97305 0.973662 0.974282 0.975046 0.97601 0.977143 0.978263 0.979077 0.979907 0.981046 0.982653
          0.984619 0.985612 0.986831 0.98913 0.996994 1 1 1 0.999979 0.999963 0.999966 0.999981
          0.999962 0.999961 0.999956 0.999972 0.999967 0.99995 0.99996 0.999972 0.999961 0.946613 0.946904 0.947442
          0.94819 0.949142 0.950259 0.951456 0.95263 0.953716 0.954771 0.955936 0.957274 0.958726 0.960152 0.961461
          0.96278 0.964292 0.965887 0.967263 0.968228 0.968975 0.969708 0.970513 0.971414 0.972372 0.973296 0.974127
          0.97502 0.97609 0.977345 0.978634 0.979695 0.980958 0.982673 0.9848 0.986159 0.988291 0.993797 0.999914
          1 1 0.999965 0.999965 0.999968 0.999979 0.999962 0.999954 0.99997 0.999969 0.999959 0.999974
          0.93947 0.939827 0.940454 0.941268 0.94223 0.943282 0.944352 0.945388 0.946394 0.947446 0.948621 0.949916
          0.951263 0.952601 0.953949 0.955413 0.957038 0.958693 0.960223 0.961636 0.963085 0.964537 0.965808 0.966847
          0.967797 0.96869 0.969552 0.970466 0.971478 0.972571 0.973675 0.97475 0.975955 0.977349 0.978842 0.98024
          0.982016 0.984282 0.985953 0.98822 0.994377 0.999968 1 1 0.999968 0.999965 0.999986 0.999967
          0.999961 0.999973 0.999976 0.932637 0.933087 0.933826 0.934714 0.935689 0.936694 0.937682 0.938642 0.93961
          0.940639 0.941761 0.942952 0.944175 0.945421 0.946729 0.948149 0.949663 0.951196 0.952712 0.954262 0.955896
          0.957545 0.959124 0.960664 0.962221 0.963665 0.964869 0.965922 0.966956 0.968001 0.969053 0.970125 0.97128
          0.972533 0.973846 0.975199 0.976729 0.978396 0.979987 0.981921 0.984409 0.986273 0.988876 0.99746 1
          1 0.999964 0.999961 0.99997 0.999981 0.999972 0.925416 0.92603 0.926956 0.927969 0.928993 0.929989
          0.930943 0.931873 0.932816 0.93381 0.934861 0.935955 0.93708 0.938249 0.939488 0.940808 0.942189 0.943602
          0.94505 0.946565 0.948152 0.949773 0.951414 0.953105 0.95484 0.956538 0.958174 0.959816 0.961459 0.962967
          0.964266 0.965458 0.966646 0.967862 0.969116 0.970425 0.971831 0.973316 0.974849 0.97656 0.978435 0.980237
          0.982394 0.985154 0.987756 0.994222 0.999986 1 1 0.999966 0.999975 0.915447 0.916491 0.917898
          0.919249 0.920476 0.92158 0.922593 0.92356 0.924526 0.925521 0.926554 0.927623 0.928733 0.929895 0.931121
          0.932409 0.933747 0.935127 0.936557 0.938048 0.939595 0.941187 0.942825 0.94452 0.946258 0.948015 0.949798
          0.951631 0.95348 0.955291 0.957077 0.958908 0.960749 0.962474 0.964016 0.965469 0.966915 0.968378 0.969881
          0.971479 0.973167 0.974913 0.976855 0.979031 0.981365 0.984338 0.987055 0.992051 0.999832 1 1
          0.884671 0.888421 0.892832 0.896394 0.899113 0.901219 0.902937 0.904456 0.905915 0.9074 0.908948 0.910573
          0.912278 0.914059 0.915906 0.9178 0.919721 0.921658 0.923605 0.92556 0.927518 0.929474 0.931434 0.933401
          0.935371 0.937343 0.939326 0.941324 0.943323 0.945317 0.947331 0.949379 0.95143 0.953451 0.955482 0.957611
          0.959836 0.962034 0.964055 0.96591 0.967716 0.969529 0.971415 0.973417 0.975568 0.977979 0.980504 0.983549
          0.986598 0.991461 0.999779 0.702872 0.714113 0.729815 0.744698 0.757277 0.767403 0.775557 0.782442 0.78885
          0.79531 0.802016 0.809084 0.816637 0.82472 0.833311 0.842314 0.851567 0.860847 0.869902 0.878494 0.886448
          0.893674 0.900156 0.905933 0.911075 0.915663 0.919782 0.923504 0.926889 0.929997 0.932887 0.935612 0.938209
          0.940718 0.943193 0.945671 0.94813 0.950525 0.952863 0.955253 0.957826 0.960616 0.963539 0.966362 0.968905
          0.971352 0.973829 0.97647 0.979269 0.982595 0.986076 0.590854 0.598552 0.60859 0.618611 0.628033 0.636727
          0.644768 0.65235 0.65956 0.666397 0.672882 0.679044 0.68492 0.690561 0.696041 0.701466 0.706976 0.71275
          0.718993 0.725916 0.733734 0.742646 0.752843 0.764489 0.777718 0.792624 0.809228 0.827346 0.846261 0.864497
          0.880266 0.892894 0.902883 0.910887 0.917451 0.922971 0.927711 0.931856 0.935559 0.938966 0.942184 0.945256
          0.948173 0.950921 0.953592 0.956396 0.959503 0.963051 0.967085 0.971465 0.975566 0.56379 0.574747 0.588215
          0.600546 0.611641 0.62176 0.63107 0.639702 0.647696 0.655047 0.661814 0.66803 0.673718 0.678906 0.683627
          0.687915 0.691809 0.695344 0.698558 0.701487 0.704165 0.706632 0.708932 0.711111 0.713216 0.715302 0.717438
          0.719717 0.722261 0.725245 0.729544 0.736354 0.74606 0.7588 0.774601 0.79342 0.815097 0.838724 0.861802
          0.881496 0.896608 0.907724 0.916225 0.923035 0.928734 0.933704 0.938165 0.942235 0.945944 0.949276 0.952255
          0.530941 0.553029 0.571667 0.586222 0.599078 0.61062 0.621023 0.630395 0.638826 0.646471 0.653364 0.65954
          0.665057 0.669973 0.674349 0.678244 0.681712 0.684804 0.687564 0.690033 0.692249 0.694248 0.696063 0.697721
          0.699244 0.70065 0.701956 0.703177 0.704325 0.705416 0.706468 0.707506 0.708568 0.709692 0.710928 0.712335
          0.714012 0.716127 0.718942 0.722788 0.728825 0.738881 0.752844 0.770357 0.791251 0.815248 0.840829 0.864739
          0.884379 0.899436 0.910624 0.599472 0.531281 0.551569 0.570079 0.585711 0.599039 0.610487 0.620324 0.62897
          0.636585 0.643214 0.64898 0.653992 0.658352 0.662149 0.665464 0.668365 0.670912 0.673154 0.675138 0.676903
          0.678488 0.67992 0.681221 0.682409 0.683499 0.684505 0.685438 0.686307 0.687123 0.687893 0.688626 0.68933
          0.690011 0.690678 0.691337 0.691996 0.692668 0.693371 0.694134 0.694993 0.695982 0.697132 0.698484 0.700137
          0.702322 0.70545 0.709908 0.71576 0.722959 0.732979 0.422427 0.491566 0.529686 0.554157 0.5724 0.586764
          0.598438 0.608196 0.61639 0.623268 0.629063 0.633959 0.63811 0.641643 0.644662 0.647254 0.649491 0.651431
          0.653124 0.654614 0.65594 0.657129 0.658201 0.659174 0.660063 0.660879 0.661635 0.662338 0.662997 0.663619
          0.66421 0.664776 0.665322 0.665852 0.666371 0.666883 0.66739 0.667898 0.668409 0.668927 0.669457 0.670003
          0.670571 0.671169 0.671813 0.672526 0.673342 0.674294 0.67541 0.676711 0.678228 0.395011 0.481623 0.519577
          0.54251 0.558999 0.571645 0.58164 0.589667 0.596176 0.601492 0.605858 0.609466 0.612465 0.614975 0.617089
          0.618882 0.620414 0.621736 0.622892 0.623914 0.624825 0.625641 0.626379 0.627051 0.627667 0.628238 0.62877
          0.629271 0.629746 0.6302 0.630639 0.631067 0.631487 0.631902 0.632317 0.632733 0.633154 0.633581 0.634018
[...]
      <CellData Scalars="process rank">
        <DataArray type="Float32" Name="process rank" NumberOfComponents="1" format="ascii">
          0 0 0 0 0 0 0 0 0 0 0 0
          0 0 0 0 0 0 0 0 0 0 0 0
          0 0 0 0 0 0 0 0 0 0 0 0
          0 0 0 0 0 0 0 0 0 0 0 0
          0 0 0 0 0 0 0 0 0 0 0 0
          0 0 0 0 0 0 0 0 0 0 0 0
          0 0 0 0 0 0 0 0 0 0 0 0
          0 0 0 0 0 0 0 0 0 0 0 0
          0 0 0 0 0 0 0 0 0 0 0 0
          0 0 0 0 0 0 0 0 0 0 0 0
          0 0 0 0 0 0 0 0 0 0 0 0
          0 0 0 0 0 0 0 0 0 0 0 0
          0 0 0 0 0 0 0 0 0 0 0 0
          0 0 0 0 0 0 0 0 0 0 0 0
          0 0 0 0 0 0 0 0 0 0 0 0
          0 0 0 0 0 0 0 0 0 0 0 0
          0 0 0 0 0 0 0 0 0 0 0 0
          0 0 0 0 0 0 0 0 0 0 0 0
          0 0 0 0 0 0 0 0 0 0 0 0
          0 0 0 0 0 0 0 0 0 0 0 0
          0 0 0 0 0 0 0 0 0 0 0 0
          0 0 0 0 0 0 0 0 0 0 0 0
          0 0 0 0 0 0 0 0 0 0 0 0
          0 0 0 0 0 0 0 0 0 0 0 0
          0 0 0 0 0 0 0 0 0 0 0 0
          0 0 0 0 0 0 0 0 0 0 0 0
          0 0 0 0 0 0 0 0 0 0 0 0
          0 0 0 0 0 0 0 0 0 0 0 0
          0 0 0 0 0 0 0 0 0 0 0 0
          0 0 0 0 0 0 0 0 0 0 0 0
          0 0 0 0 0 0 0 0 0 0 0 0
          0 0 0 0 0 0 0 0 0 0 0 0
          0 0 0 0 0 0 0 0 0 0 0 0
          0 0 0 0 0 0 0 0 0 0 0 0
          0 0 0 0 0 0 0 0 0 0 0 0
          0 0 0 0 0 0 0 0 0 0 0 0
          0 0 0 0 0 0 0 0 0 0 0 0
          0 0 0 0 0 0 0 0 0 0 0 0
          0 0 0 0 0 0 0 0 0 0 0 0
          0 0 0 0 0 0 0 0 0 0 0 0
          0 0 0 0 0 0 0 0 0 0 0 0
          0 0 0 0 0 0 0 0 0 0 0 0
          0 0 0 0 0 0 0 0 0 0 0 0
          0 0 0 0 0 0 0 0 0 0 0 0
          0 0 0 0 0 0 0 0 0 0 0 0
          0 0 0 0 0 0 0 0 0 0 0 0
          0 0 0 0 0 0 0 0 0 0 0 0
          0 0 0 0 0 0 0 0 0 0 0 0
          0 0 0 0 0 0 0 0 0 0 0 0
          0 0 0 0 0 0 0 0 0 0 0 0
          0 0 0 0 0 0 0 0 0 0 0 0
          0 0 0 0 0 0 0 0 0 0 0 0
          0 0 0 0 0 0 0 0 0 0 0 0
          0 0 0 0 0 0 0 0 0 0 0 0
          0 0 0 0 0 0 0 0 0 0 0 0
          0 0 0 0 0 0 0 0 0 0 0 0
          0 0 0 0 0 0 0 0 0 0 0 0
          0 0 0 0 0 0 0 0 0 0 0 0
          0 0 0 0 0 0 0 0 0 0 0 0
          0 0 0 0 0 0 0 0 0 0 0 0
          0 0 0 0 0 0 0 0 0 0 0 0
          0 0 0 0 0 0 0 0 0 0 0 0
          0 0 0 0 0 0 0 0 0 0 0 0
          0 0 0 0 0 0 0 0 0 0 0 0
          0 0 0 0 0 0 0 0 0 0 0 0
          0 0 0 0 0 0 0 0 0 0 0 0
          0 0 0 0 0 0 0 0 0 0 0 0
          0 0 0 0 0 0 0 0 0 0 0 0
          0 0 0 0 0 0 0 0 0 0 0 0
          0 0 0 0 0 0 0 0 0 0 0 0
          0 0 0 0 0 0 0 0 0 0 0 0
          0 0 0 0 0 0 0 0 0 0 0 0
          0 0 0 0 0 0 0 0 0 0 0 0
          0 0 0 0 0 0 0 0 0 0 0 0
          0 0 0 0 0 0 0 0 0 0 0 0
          0 0 0 0 0 0 0 0 0 0 0 0
          0 0 0 0 0 0 0 0 0 0 0 0
          0 0 0 0 0 0 0 0 0 0 0 0
          0 0 0 0 0 0 0 0 0 0 0 0
          0 0 0 0 0 0 0 0 0 0 0 0
          0 0 0 0 0 0 0 0 0 0 0 0
          0 0 0 0 0 0 0 0 0 0 0 0
          0 0 0 0 0 0 0 0 0 0 0 0
          0 0 0 0
        </DataArray>
      </CellData>
      <Points>
        <DataArray type="Float32" Name="Coordinates" NumberOfComponents="3" format="ascii">
          0.2 0 0 5.2 0 0 0.2 3 0 5.2 3 0
          10.2 0 0 10.2 3 0 15.2 0 0 15.2 3 0
          20.2 0 0 20.2 3 0 25.2 0 0 25.2 3 0
          30.2 0 0 30.2 3 0 35.2 0 0 35.2 3 0
          40.2 0 0 40.2 3 0 45.2 0 0 45.2 3 0
          50.2 0 0 50.2 3 0 55.2 0 0 55.2 3 0
          60.2 0 0 60.2 3 0 65.2 0 0 65.2 3 0
          70.2 0 0 70.2 3 0 75.2 0 0 75.2 3 0
          80.2 0 0 80.2 3 0 85.2 0 0 85.2 3 0
          90.2 0 0 90.2 3 0 95.2 0 0 95.2 3 0
          100.2 0 0 100.2 3 0 105.2 0 0 105.2 3 0
          110.2 0 0 110.2 3 0 115.2 0 0 115.2 3 0
          120.2 0 0 120.2 3 0 125.2 0 0 125.2 3 0
          130.2 0 0 130.2 3 0 135.2 0 0 135.2 3 0
          140.2 0 0 140.2 3 0 145.2 0 0 145.2 3 0
          150.2 0 0 150.2 3 0 155.2 0 0 155.2 3 0
          160.2 0 0 160.2 3 0 165.2 0 0 165.2 3 0
          170.2 0 0 170.2 3 0 175.2 0 0 175.2 3 0
          180.2 0 0 180.2 3 0 185.2 0 0 185.2 3 0
          190.2 0 0 190.2 3 0 195.2 0 0 195.2 3 0
          200.2 0 0 200.2 3 0 205.2 0 0 205.2 3 0
          210.2 0 0 210.2 3 0 215.2 0 0 215.2 3 0
          220.2 0 0 220.2 3 0 225.2 0 0 225.2 3 0
          230.2 0 0 230.2 3 0 235.2 0 0 235.2 3 0
          240.2 0 0 240.2 3 0 245.2 0 0 245.2 3 0
          250.2 0 0 250.2 3 0 0.2 6 0 5.2 6 0
          10.2 6 0 15.2 6 0 20.2 6 0 25.2 6 0
          30.2 6 0 35.2 6 0 40.2 6 0 45.2 6 0
          50.2 6 0 55.2 6 0 60.2 6 0 65.2 6 0
          70.2 6 0 75.2 6 0 80.2 6 0 85.2 6 0
          90.2 6 0 95.2 6 0 100.2 6 0 105.2 6 0
          110.2 6 0 115.2 6 0 120.2 6 0 125.2 6 0
          130.2 6 0 135.2 6 0 140.2 6 0 145.2 6 0
          150.2 6 0 155.2 6 0 160.2 6 0 165.2 6 0
          170.2 6 0 175.2 6 0 180.2 6 0 185.2 6 0
          190.2 6 0 195.2 6 0 200.2 6 0 205.2 6 0
          210.2 6 0 215.2 6 0 220.2 6 0 225.2 6 0
          230.2 6 0 235.2 6 0 240.2 6 0 245.2 6 0
          250.2 6 0 0.2 9 0 5.2 9 0 10.2 9 0
          15.2 9 0 20.2 9 0 25.2 9 0 30.2 9 0
          35.2 9 0 40.2 9 0 45.2 9 0 50.2 9 0
          55.2 9 0 60.2 9 0 65.2 9 0 70.2 9 0
          75.2 9 0 80.2 9 0 85.2 9 0 90.2 9 0
          95.2 9 0 100.2 9 0 105.2 9 0 110.2 9 0
          115.2 9 0 120.2 9 0 125.2 9 0 130.2 9 0
          135.2 9 0 140.2 9 0 145.2 9 0 150.2 9 0
          155.2 9 0 160.2 9 0 165.2 9 0 170.2 9 0
          175.2 9 0 180.2 9 0 185.2 9 0 190.2 9 0
          195.2 9 0 200.2 9 0 205.2 9 0 210.2 9 0
          215.2 9 0 220.2 9 0 225.2 9 0 230.2 9 0
          235.2 9 0 240.2 9 0 245.2 9 0 250.2 9 0
          0.2 12 0 5.2 12 0 10.2 12 0 15.2 12 0
          20.2 12 0 25.2 12 0 30.2 12 0 35.2 12 0
          40.2 12 0 45.2 12 0 50.2 12 0 55.2 12 0
          60.2 12 0 65.2 12 0 70.2 12 0 75.2 12 0
          80.2 12 0 85.2 12 0 90.2 12 0 95.2 12 0
          100.2 12 0 105.2 12 0 110.2 12 0 115.2 12 0
          120.2 12 0 125.2 12 0 130.2 12 0 135.2 12 0
          140.2 12 0 145.2 12 0 150.2 12 0 155.2 12 0
          160.2 12 0 165.2 12 0 170.2 12 0 175.2 12 0
          180.2 12 0 185.2 12 0 190.2 12 0 195.2 12 0
          200.2 12 0 205.2 12 0 210.2 12 0 215.2 12 0
          220.2 12 0 225.2 12 0 230.2 12 0 235.2 12 0
          240.2 12 0 245.2 12 0 250.2 12 0 0.2 15 0
          5.2 15 0 10.2 15 0 15.2 15 0 20.2 15 0
          25.2 15 0 30.2 15 0 35.2 15 0 40.2 15 0
          45.2 15 0 50.2 15 0 55.2 15 0 60.2 15 0
          65.2 15 0 70.2 15 0 75.2 15 0 80.2 15 0
          85.2 15 0 90.2 15 0 95.2 15 0 100.2 15 0
          105.2 15 0 110.2 15 0 115.2 15 0 120.2 15 0
          125.2 15 0 130.2 15 0 135.2 15 0 140.2 15 0
          145.2 15 0 150.2 15 0 155.2 15 0 160.2 15 0
          165.2 15 0 170.2 15 0 175.2 15 0 180.2 15 0
          185.2 15 0 190.2 15 0 195.2 15 0 200.2 15 0
          205.2 15 0 210.2 15 0 215.2 15 0 220.2 15 0
          225.2 15 0 230.2 15 0 235.2 15 0 240.2 15 0
          245.2 15 0 250.2 15 0 0.2 18 0 5.2 18 0
          10.2 18 0 15.2 18 0 20.2 18 0 25.2 18 0
          30.2 18 0 35.2 18 0 40.2 18 0 45.2 18 0
          50.2 18 0 55.2 18 0 60.2 18 0 65.2 18 0
          70.2 18 0 75.2 18 0 80.2 18 0 85.2 18 0
          90.2 18 0 95.2 18 0 100.2 18 0 105.2 18 0
          110.2 18 0 115.2 18 0 120.2 18 0 125.2 18 0
          130.2 18 0 135.2 18 0 140.2 18 0 145.2 18 0
          150.2 18 0 155.2 18 0 160.2 18 0 165.2 18 0
          170.2 18 0 175.2 18 0 180.2 18 0 185.2 18 0
          190.2 18 0 195.2 18 0 200.2 18 0 205.2 18 0
          210.2 18 0 215.2 18 0 220.2 18 0 225.2 18 0
          230.2 18 0 235.2 18 0 240.2 18 0 245.2 18 0
          250.2 18 0 0.2 21 0 5.2 21 0 10.2 21 0
          15.2 21 0 20.2 21 0 25.2 21 0 30.2 21 0
          35.2 21 0 40.2 21 0 45.2 21 0 50.2 21 0
          55.2 21 0 60.2 21 0 65.2 21 0 70.2 21 0
          75.2 21 0 80.2 21 0 85.2 21 0 90.2 21 0
          95.2 21 0 100.2 21 0 105.2 21 0 110.2 21 0
          115.2 21 0 120.2 21 0 125.2 21 0 130.2 21 0
          135.2 21 0 140.2 21 0 145.2 21 0 150.2 21 0
          155.2 21 0 160.2 21 0 165.2 21 0 170.2 21 0
          175.2 21 0 180.2 21 0 185.2 21 0 190.2 21 0
          195.2 21 0 200.2 21 0 205.2 21 0 210.2 21 0
          215.2 21 0 220.2 21 0 225.2 21 0 230.2 21 0
          235.2 21 0 240.2 21 0 245.2 21 0 250.2 21 0
          0.2 24 0 5.2 24 0 10.2 24 0 15.2 24 0
          20.2 24 0 25.2 24 0 30.2 24 0 35.2 24 0
          40.2 24 0 45.2 24 0 50.2 24 0 55.2 24 0
          60.2 24 0 65.2 24 0 70.2 24 0 75.2 24 0
          80.2 24 0 85.2 24 0 90.2 24 0 95.2 24 0
          100.2 24 0 105.2 24 0 110.2 24 0 115.2 24 0
          120.2 24 0 125.2 24 0 130.2 24 0 135.2 24 0
          140.2 24 0 145.2 24 0 150.2 24 0 155.2 24 0
          160.2 24 0 165.2 24 0 170.2 24 0 175.2 24 0
          180.2 24 0 185.2 24 0 190.2 24 0 195.2 24 0
          200.2 24 0 205.2 24 0 210.2 24 0 215.2 24 0
          220.2 24 0 225.2 24 0 230.2 24 0 235.2 24 0
          240.2 24 0 245.2 24 0 250.2 24 0 0.2 27 0
          5.2 27 0 10.2 27 0 15.2 27 0 20.2 27 0
          25.2 27 0 30.2 27 0 35.2 27 0 40.2 27 0
          45.2 27 0 50.2 27 0 55.2 27 0 60.2 27 0
          65.2 27 0 70.2 27 0 75.2 27 0 80.2 27 0
          85.2 27 0 90.2 27 0 95.2 27 0 100.2 27 0
          105.2 27 0 110.2 27 0 115.2 27 0 120.2 27 0
          125.2 27 0 130.2 27 0 135.2 27 0 140.2 27 0
          145.2 27 0 150.2 27 0 155.2 27 0 160.2 27 0
          165.2 27 0 170.2 27 0 175.2 27 0 180.2 27 0
          185.2 27 0 190.2 27 0 195.2 27 0 200.2 27 0
          205.2 27 0 210.2 27 0 215.2 27 0 220.2 27 0
          225.2 27 0 230.2 27 0 235.2 27 0 240.2 27 0
          245.2 27 0 250.2 27 0 0.2 30 0 5.2 30 0
          10.2 30 0 15.2 30 0 20.2 30 0 25.2 30 0
          30.2 30 0 35.2 30 0 40.2 30 0 45.2 30 0
          50.2 30 0 55.2 30 0 60.2 30 0 65.2 30 0
          70.2 30 0 75.2 30 0 80.2 30 0 85.2 30 0
          90.2 30 0 95.2 30 0 100.2 30 0 105.2 30 0
          110.2 30 0 115.2 30 0 120.2 30 0 125.2 30 0
          130.2 30 0 135.2 30 0 140.2 30 0 145.2 30 0
          150.2 30 0 155.2 30 0 160.2 30 0 165.2 30 0
          170.2 30 0 175.2 30 0 180.2 30 0 185.2 30 0
          190.2 30 0 195.2 30 0 200.2 30 0 205.2 30 0
          210.2 30 0 215.2 30 0 220.2 30 0 225.2 30 0
          230.2 30 0 235.2 30 0 240.2 30 0 245.2 30 0
          250.2 30 0 0.2 33 0 5.2 33 0 10.2 33 0
          15.2 33 0 20.2 33 0 25.2 33 0 30.2 33 0
          35.2 33 0 40.2 33 0 45.2 33 0 50.2 33 0
          55.2 33 0 60.2 33 0 65.2 33 0 70.2 33 0
          75.2 33 0 80.2 33 0 85.2 33 0 90.2 33 0
          95.2 33 0 100.2 33 0 105.2 33 0 110.2 33 0
          115.2 33 0 120.2 33 0 125.2 33 0 130.2 33 0
          135.2 33 0 140.2 33 0 145.2 33 0 150.2 33 0
          155.2 33 0 160.2 33 0 165.2 33 0 170.2 33 0
          175.2 33 0 180.2 33 0 185.2 33 0 190.2 33 0
          195.2 33 0 200.2 33 0 205.2 33 0 210.2 33 0
          215.2 33 0 220.2 33 0 225.2 33 0 230.2 33 0
          235.2 33 0 240.2 33 0 245.2 33 0 250.2 33 0
          0.2 36 0 5.2 36 0 10.2 36 0 15.2 36 0
          20.2 36 0 25.2 36 0 30.2 36 0 35.2 36 0
          40.2 36 0 45.2 36 0 50.2 36 0 55.2 36 0
          60.2 36 0 65.2 36 0 70.2 36 0 75.2 36 0
          80.2 36 0 85.2 36 0 90.2 36 0 95.2 36 0
          100.2 36 0 105.2 36 0 110.2 36 0 115.2 36 0
          120.2 36 0 125.2 36 0 130.2 36 0 135.2 36 0
          140.2 36 0 145.2 36 0 150.2 36 0 155.2 36 0
          160.2 36 0 165.2 36 0 170.2 36 0 175.2 36 0
          180.2 36 0 185.2 36 0 190.2 36 0 195.2 36 0
          200.2 36 0 205.2 36 0 210.2 36 0 215.2 36 0
          220.2 36 0 225.2 36 0 230.2 36 0 235.2 36 0
          240.2 36 0 245.2 36 0 250.2 36 0 0.2 39 0
          5.2 39 0 10.2 39 0 15.2 39 0 20.2 39 0
          25.2 39 0 30.2 39 0 35.2 39 0 40.2 39 0
          45.2 39 0 50.2 39 0 55.2 39 0 60.2 39 0
          65.2 39 0 70.2 39 0 75.2 39 0 80.2 39 0
          85.2 39 0 90.2 39 0 95.2 39 0 100.2 39 0
          105.2 39 0 110.2 39 0 115.2 39 0 120.2 39 0
          125.2 39 0 130.2 39 0 135.2 39 0 140.2 39 0
          145.2 39 0 150.2 39 0 155.2 39 0 160.2 39 0
          165.2 39 0 170.2 39 0 175.2 39 0 180.2 39 0
          185.2 39 0 190.2 39 0 195.2 39 0 200.2 39 0
          205.2 39 0 210.2 39 0 215.2 39 0 220.2 39 0
          225.2 39 0 230.2 39 0 235.2 39 0 240.2 39 0
          245.2 39 0 250.2 39 0 0.2 42 0 5.2 42 0
          10.2 42 0 15.2 42 0 20.2 42 0 25.2 42 0
          30.2 42 0 35.2 42 0 40.2 42 0 45.2 42 0
          50.2 42 0 55.2 42 0 60.2 42 0 65.2 42 0
          70.2 42 0 75.2 42 0 80.2 42 0 85.2 42 0
          90.2 42 0 95.2 42 0 100.2 42 0 105.2 42 0
          110.2 42 0 115.2 42 0 120.2 42 0 125.2 42 0
          130.2 42 0 135.2 42 0 140.2 42 0 145.2 42 0
          150.2 42 0 155.2 42 0 160.2 42 0 165.2 42 0
          170.2 42 0 175.2 42 0 180.2 42 0 185.2 42 0
          190.2 42 0 195.2 42 0 200.2 42 0 205.2 42 0
          210.2 42 0 215.2 42 0 220.2 42 0 225.2 42 0
          230.2 42 0 235.2 42 0 240.2 42 0 245.2 42 0
          250.2 42 0 0.2 45 0 5.2 45 0 10.2 45 0
          15.2 45 0 20.2 45 0 25.2 45 0 30.2 45 0
          35.2 45 0 40.2 45 0 45.2 45 0 50.2 45 0
          55.2 45 0 60.2 45 0 65.2 45 0 70.2 45 0
          75.2 45 0 80.2 45 0 85.2 45 0 90.2 45 0
          95.2 45 0 100.2 45 0 105.2 45 0 110.2 45 0
          115.2 45 0 120.2 45 0 125.2 45 0 130.2 45 0
          135.2 45 0 140.2 45 0 145.2 45 0 150.2 45 0
          155.2 45 0 160.2 45 0 165.2 45 0 170.2 45 0
          175.2 45 0 180.2 45 0 185.2 45 0 190.2 45 0
          195.2 45 0 200.2 45 0 205.2 45 0 210.2 45 0
          215.2 45 0 220.2 45 0 225.2 45 0 230.2 45 0
          235.2 45 0 240.2 45 0 245.2 45 0 250.2 45 0
          0.2 48 0 5.2 48 0 10.2 48 0 15.2 48 0
          20.2 48 0 25.2 48 0 30.2 48 0 35.2 48 0
          40.2 48 0 45.2 48 0 50.2 48 0 55.2 48 0
          60.2 48 0 65.2 48 0 70.2 48 0 75.2 48 0
          80.2 48 0 85.2 48 0 90.2 48 0 95.2 48 0
          100.2 48 0 105.2 48 0 110.2 48 0 115.2 48 0
          120.2 48 0 125.2 48 0 130.2 48 0 135.2 48 0
          140.2 48 0 145.2 48 0 150.2 48 0 155.2 48 0
          160.2 48 0 165.2 48 0 170.2 48 0 175.2 48 0
          180.2 48 0 185.2 48 0 190.2 48 0 195.2 48 0
          200.2 48 0 205.2 48 0 210.2 48 0 215.2 48 0
          220.2 48 0 225.2 48 0 230.2 48 0 235.2 48 0
          240.2 48 0 245.2 48 0 250.2 48 0 0.2 51 0
          5.2 51 0 10.2 51 0 15.2 51 0 20.2 51 0
          25.2 51 0 30.2 51 0 35.2 51 0 40.2 51 0
          45.2 51 0 50.2 51 0 55.2 51 0 60.2 51 0
          65.2 51 0 70.2 51 0 75.2 51 0 80.2 51 0
          85.2 51 0 90.2 51 0 95.2 51 0 100.2 51 0
          105.2 51 0 110.2 51 0 115.2 51 0 120.2 51 0
          125.2 51 0 130.2 51 0 135.2 51 0 140.2 51 0
          145.2 51 0 150.2 51 0 155.2 51 0 160.2 51 0
          165.2 51 0 170.2 51 0 175.2 51 0 180.2 51 0
          185.2 51 0 190.2 51 0 195.2 51 0 200.2 51 0
          205.2 51 0 210.2 51 0 215.2 51 0 220.2 51 0
          225.2 51 0 230.2 51 0 235.2 51 0 240.2 51 0
          245.2 51 0 250.2 51 0 0.2 54 0 5.2 54 0
          10.2 54 0 15.2 54 0 20.2 54 0 25.2 54 0
          30.2 54 0 35.2 54 0 40.2 54 0 45.2 54 0
          50.2 54 0 55.2 54 0 60.2 54 0 65.2 54 0
          70.2 54 0 75.2 54 0 80.2 54 0 85.2 54 0
          90.2 54 0 95.2 54 0 100.2 54 0 105.2 54 0
          110.2 54 0 115.2 54 0 120.2 54 0 125.2 54 0
          130.2 54 0 135.2 54 0 140.2 54 0 145.2 54 0
          150.2 54 0 155.2 54 0 160.2 54 0 165.2 54 0
          170.2 54 0 175.2 54 0 180.2 54 0 185.2 54 0
          190.2 54 0 195.2 54 0 200.2 54 0 205.2 54 0
          210.2 54 0 215.2 54 0 220.2 54 0 225.2 54 0
          230.2 54 0 235.2 54 0 240.2 54 0 245.2 54 0
          250.2 54 0 0.2 57 0 5.2 57 0 10.2 57 0
          15.2 57 0 20.2 57 0 25.2 57 0 30.2 57 0
          35.2 57 0 40.2 57 0 45.2 57 0 50.2 57 0
          55.2 57 0 60.2 57 0 65.2 57 0 70.2 57 0
          75.2 57 0 80.2 57 0 85.2 57 0 90.2 57 0
          95.2 57 0 100.2 57 0 105.2 57 0 110.2 57 0
          115.2 57 0 120.2 57 0 125.2 57 0 130.2 57 0
          135.2 57 0 140.2 57 0 145.2 57 0 150.2 57 0
          155.2 57 0 160.2 57 0 165.2 57 0 170.2 57 0
          175.2 57 0 180.2 57 0 185.2 57 0 190.2 57 0
          195.2 57 0 200.2 57 0 205.2 57 0 210.2 57 0
          215.2 57 0 220.2 57 0 225.2 57 0 230.2 57 0
          235.2 57 0 240.2 57 0 245.2 57 0 250.2 57 0
          0.2 60 0 5.2 60 0 10.2 60 0 15.2 60 0
          20.2 60 0 25.2 60 0 30.2 60 0 35.2 60 0
          40.2 60 0 45.2 60 0 50.2 60 0 55.2 60 0
          60.2 60 0 65.2 60 0 70.2 60 0 75.2 60 0
          80.2 60 0 85.2 60 0 90.2 60 0 95.2 60 0
          100.2 60 0 105.2 60 0 110.2 60 0 115.2 60 0
          120.2 60 0 125.2 60 0 130.2 60 0 135.2 60 0
          140.2 60 0 145.2 60 0 150.2 60 0 155.2 60 0
          160.2 60 0 165.2 60 0 170.2 60 0 175.2 60 0
          180.2 60 0 185.2 60 0 190.2 60 0 195.2 60 0
          200.2 60 0 205.2 60 0 210.2 60 0 215.2 60 0
          220.2 60 0 225.2 60 0 230.2 60 0 235.2 60 0
          240.2 60 0 245.2 60 0 250.2 60 0
        </DataArray>
      </Points>
      <Cells>
        <DataArray type="Int32" Name="connectivity" NumberOfComponents="1" format="ascii">
          0 1 3 2 1 4 5 3 4 6 7 5
          6 8 9 7 8 10 11 9 10 12 13 11
          12 14 15 13 14 16 17 15 16 18 19 17
          18 20 21 19 20 22 23 21 22 24 25 23
          24 26 27 25 26 28 29 27 28 30 31 29
          30 32 33 31 32 34 35 33 34 36 37 35
          36 38 39 37 38 40 41 39 40 42 43 41
          42 44 45 43 44 46 47 45 46 48 49 47
          48 50 51 49 50 52 53 51 52 54 55 53
          54 56 57 55 56 58 59 57 58 60 61 59
          60 62 63 61 62 64 65 63 64 66 67 65
          66 68 69 67 68 70 71 69 70 72 73 71
          72 74 75 73 74 76 77 75 76 78 79 77
          78 80 81 79 80 82 83 81 82 84 85 83
          84 86 87 85 86 88 89 87 88 90 91 89
          90 92 93 91 92 94 95 93 94 96 97 95
          96 98 99 97 98 100 101 99 2 3 103 102
          3 5 104 103 5 7 105 104 7 9 106 105
          9 11 107 106 11 13 108 107 13 15 109 108
          15 17 110 109 17 19 111 110 19 21 112 111
          21 23 113 112 23 25 114 113 25 27 115 114
          27 29 116 115 29 31 117 116 31 33 118 117
          33 35 119 118 35 37 120 119 37 39 121 120
          39 41 122 121 41 43 123 122 43 45 124 123
          45 47 125 124 47 49 126 125 49 51 127 126
          51 53 128 127 53 55 129 128 55 57 130 129
          57 59 131 130 59 61 132 131 61 63 133 132
          63 65 134 133 65 67 135 134 67 69 136 135
          69 71 137 136 71 73 138 137 73 75 139 138
          75 77 140 139 77 79 141 140 79 81 142 141
          81 83 143 142 83 85 144 143 85 87 145 144
          87 89 146 145 89 91 147 146 91 93 148 147
          93 95 149 148 95 97 150 149 97 99 151 150
          99 101 152 151 102 103 154 153 103 104 155 154
          104 105 156 155 105 106 157 156 106 107 158 157
          107 108 159 158 108 109 160 159 109 110 161 160
          110 111 162 161 111 112 163 162 112 113 164 163
          113 114 165 164 114 115 166 165 115 116 167 166
          116 117 168 167 117 118 169 168 118 119 170 169
          119 120 171 170 120 121 172 171 121 122 173 172
          122 123 174 173 123 124 175 174 124 125 176 175
          125 126 177 176 126 127 178 177 127 128 179 178
          128 129 180 179 129 130 181 180 130 131 182 181
          131 132 183 182 132 133 184 183 133 134 185 184
          134 135 186 185 135 136 187 186 136 137 188 187
          137 138 189 188 138 139 190 189 139 140 191 190
          140 141 192 191 141 142 193 192 142 143 194 193
          143 144 195 194 144 145 196 195 145 146 197 196
          146 147 198 197 147 148 199 198 148 149 200 199
          149 150 201 200 150 151 202 201 151 152 203 202
          153 154 205 204 154 155 206 205 155 156 207 206
          156 157 208 207 157 158 209 208 158 159 210 209
          159 160 211 210 160 161 212 211 161 162 213 212
          162 163 214 213 163 164 215 214 164 165 216 215
          165 166 217 216 166 167 218 217 167 168 219 218
          168 169 220 219 169 170 221 220 170 171 222 221