<?xml version="1.0"?>
<VTKFile type="UnstructuredGrid" version="0.1" byte_order="LittleEndian">
  <UnstructuredGrid>
    <Piece NumberOfCells="1000" NumberOfPoints="1071">
      <PointData Scalars="S_liq" Vectors="velocity_liq (m/s)">
        <DataArray type="Float32" Name="S_liq" NumberOfComponents="1" format="ascii">
          0.99953 0.99953 0.99996 0.99996 0.999529 0.99996 0.999529 0.999961 0.999529 0.999962 0.999528 0.999963
          0.999527 0.999965 0.999526 0.999968 0.999526 0.999971 0.999525 0.999976 0.999524 0.999978 0.999526 0.999955
          0.999526 0.999968 0.999526 0.99997 0.999525 0.999965 0.999523 0.999961 0.999522 0.999957 0.99952 0.999953
          0.999519 0.999951 0.999518 0.999949 0.999517 0.999952 0.999517 0.999953 0.999516 0.99995 0.999516 0.999946
          0.999516 0.999942 0.999516 0.999939 0.999517 0.999936 0.999517 0.999937 0.999518 0.999935 0.99952 0.999932
          0.999521 0.99993 0.999523 0.999928 0.999525 0.999924 0.999528 0.999922 0.999531 0.99992 0.999534 0.999919
          0.999537 0.999918 0.999542 0.999915 0.999546 0.999913 0.99955 0.999911 0.999555 0.999911 0.99956 0.99991
          0.999565 0.999909 0.999571 0.999907 0.999577 0.999907 0.999583 0.999907 0.99959 0.999907 0.999596 0.999905
          0.999603 0.999906 0.99961 0.999904 0.999617 0.999902 0.984758 0.984779 0.984822 0.984897 0.985022 0.985231
          0.985586 0.986195 0.987279 0.989311 0.993734 0.999797 0.999953 0.999967 0.999972 0.999978 0.999986 0.999995
          0.999998 1 0.999988 0.999963 0.999965 0.999964 0.999965 0.999962 0.999967 0.99996 0.999959 0.999954
          0.999952 0.999947 0.999959 0.999953 0.999953 0.99995 0.99994 0.999946 0.999944 0.99995 0.99994 0.999942
          0.999938 0.999943 0.999937 0.999939 0.999935 0.99994 0.999934 0.999934 0.999934 0.978494 0.97853 0.978603
          0.978724 0.978916 0.979218 0.979686 0.980398 0.981436 0.982814 0.98424 0.984734 0.984807 0.984896 0.985063
          0.985363 0.985893 0.98686 0.988748 0.993185 0.999685 0.999996 0.999998 0.999999 1 1 0.999998
          0.999961 0.999968 0.999969 0.999968 0.999978 0.999958 0.999957 0.999956 0.999951 0.999967 0.99996 0.99996
          0.999943 0.999952 0.999951 0.99996 0.999948 0.99995 0.999949 0.999956 0.999944 0.999945 0.999951 0.999946
          0.972944 0.973001 0.973116 0.973294 0.973556 0.973936 0.974474 0.975208 0.976141 0.977172 0.978031 0.978404
          0.978572 0.978758 0.979038 0.979474 0.980141 0.981137 0.982533 0.984147 0.98491 0.985265 0.985789 0.986755
          0.988704 0.993659 0.999797 0.999999 1 1 1 0.999964 0.999964 0.999969 0.999967 0.999979
          0.999959 0.999956 0.999949 0.99997 0.999965 0.999964 0.999947 0.999958 0.999959 0.999963 0.999946 0.999952
          0.999964 0.99995 0.999951 0.963737 0.963893 0.964207 0.964696 0.965411 0.966404 0.967692 0.969192 0.970655
          0.971781 0.972525 0.972956 0.973254 0.973569 0.973982 0.974544 0.97529 0.976224 0.977278 0.978245 0.978832
          0.979325 0.98 0.981016 0.982481 0.984249 0.985154 0.98583 0.986929 0.989133 0.996551 0.999991 1
          1 1 0.999964 0.999966 0.999965 0.999976 0.999962 0.999961 0.999953 0.999971 0.999965 0.999965
          0.99995 0.999965 0.999973 0.999954 0.999956 0.999976 0.955131 0.955354 0.955787 0.95643 0.957311 0.958436
          0.959748 0.96111 0.962344 0.963386 0.964387 0.965489 0.966733 0.967995 0.969045 0.969868 0.970701 0.971581
          0.972446 0.973204 0.973807 0.97442 0.975179 0.976137 0.977264 0.978376 0.979182 0.980007 0.981142 0.982742
          0.984697 0.98568 0.986893 0.989184 0.996997 1 1 1 0.999979 0.999963 0.999966 0.999981
          0.999962 0.999961 0.999956 0.999972 0.999967 0.99995 0.99996 0.999972 0.999961 0.947498 0.947778 0.948298
          0.949025 0.949952 0.951044 0.952218 0.953369 0.954432 0.955458 0.956585 0.957877 0.959277 0.960653 0.961919
          0.963193 0.964649 0.96618 0.967502 0.968438 0.96917 0.969891 0.970688 0.971581 0.972531 0.973445 0.974268
          0.975154 0.976219 0.977466 0.978747 0.979799 0.981056 0.982763 0.984878 0.986227 0.98835 0.993811 0.999914
          1 1 0.999965 0.999965 0.999968 0.999979 0.999962 0.999954 0.99997 0.999969 0.999959 0.999974
          0.940592 0.940935 0.941539 0.942327 0.943263 0.944291 0.945338 0.946349 0.947327 0.948345 0.949482 0.950736
          0.952042 0.953338 0.954643 0.956058 0.957628 0.959225 0.960699 0.962058 0.963445 0.964832 0.966055 0.96707
          0.968004 0.968884 0.969736 0.970641 0.971645 0.972729 0.973824 0.974889 0.976086 0.977473 0.978956 0.980346
          0.982113 0.984364 0.986025 0.988282 0.994387 0.999968 1 1 0.999968 0.999965 0.999986 0.999967
          0.999961 0.999973 0.999976 0.934072 0.9345 0.935204 0.936057 0.936999 0.937972 0.938929 0.939857 0.940788
          0.941779 0.94286 0.944011 0.945192 0.946396 0.94766 0.949032 0.950496 0.951978 0.95344 0.954932 0.956503
          0.958087 0.959605 0.961085 0.962576 0.963959 0.965123 0.966154 0.967173 0.968205 0.969245 0.970307 0.971452
          0.972695 0.973998 0.975341 0.976861 0.978517 0.980098 0.982021 0.984492 0.986343 0.988933 0.997462 1
          1 0.999964 0.999961 0.99997 0.999981 0.999972 0.927397 0.927962 0.928821 0.92977 0.930737 0.931681
          0.932584 0.933462 0.934354 0.935296 0.936296 0.937339 0.938413 0.939531 0.940717 0.941983 0.94331 0.944667
          0.946059 0.947514 0.94904 0.950599 0.952178 0.953803 0.955468 0.957097 0.958667 0.960242 0.961816 0.963268
          0.96453 0.9657 0.966871 0.968073 0.969314 0.970611 0.972005 0.973478 0.974999 0.976698 0.978559 0.980347
          0.982493 0.985237 0.987823 0.994233 0.999987 1 1 0.999966 0.999975 0.91895 0.919836 0.92104
          0.922211 0.923284 0.924257 0.925151 0.926009 0.926872 0.927769 0.928706 0.929681 0.930698 0.931768 0.932904
          0.934103 0.935354 0.936649 0.937996 0.939406 0.940876 0.942391 0.943955 0.945575 0.947239 0.948921 0.950629
          0.952385 0.954158 0.955894 0.95761 0.959367 0.961134 0.962797 0.964299 0.965724 0.967149 0.968594 0.970082
          0.971665 0.973338 0.975068 0.976996 0.979157 0.981476 0.984428 0.987127 0.992076 0.999833 1 1
          0.89821 0.900722 0.903636 0.905963 0.907727 0.909092 0.910215 0.911232 0.91224 0.913299 0.914434 0.915656
          0.916968 0.918369 0.919853 0.921405 0.923008 0.924653 0.926336 0.928054 0.929799 0.931567 0.933358 0.935173
          0.937005 0.938849 0.940711 0.942595 0.944485 0.946379 0.948295 0.950251 0.952214 0.954154 0.956108 0.958157
          0.960296 0.962412 0.964372 0.966186 0.967962 0.96975 0.971616 0.973599 0.975732 0.978123 0.980627 0.983648
          0.986675 0.99149 0.99978 0.749584 0.761928 0.777978 0.791699 0.802013 0.809408 0.81484 0.81925 0.823422
          0.8278 0.832548 0.837757 0.843486 0.849718 0.85637 0.863308 0.870365 0.877367 0.884151 0.890588 0.896594
          0.902128 0.907188 0.911796 0.915986 0.919803 0.923293 0.9265 0.929461 0.93222 0.93483 0.937328 0.93974
          0.942095 0.944435 0.94679 0.949136 0.951427 0.953671 0.955972 0.95845 0.961138 0.963957 0.966691 0.969179
          0.971587 0.974033 0.976645 0.979417 0.982711 0.986163 0.59339 0.601582 0.612338 0.623039 0.632932 0.641847
          0.649909 0.657384 0.664456 0.671193 0.677651 0.683885 0.689958 0.695945 0.701939 0.708055 0.714428 0.721212
          0.728564 0.736644 0.745617 0.755645 0.766901 0.779541 0.793698 0.80943 0.826614 0.844665 0.862317 0.877877
          0.890579 0.900749 0.908943 0.915665 0.921305 0.92614 0.930355 0.934084 0.937455 0.940597 0.943606 0.946512
          0.949295 0.951934 0.954508 0.957217 0.960222 0.963653 0.967557 0.971804 0.975804 0.563993 0.574994 0.588539
          0.600909 0.612013 0.622126 0.631426 0.640055 0.648035 0.655367 0.662112 0.668304 0.673965 0.679125 0.683818
          0.688079 0.691947 0.69546 0.698655 0.701569 0.704239 0.706707 0.70902 0.711227 0.713384 0.715558 0.717834
          0.720323 0.723184 0.727224 0.733476 0.74232 0.753965 0.768513 0.786022 0.806448 0.82931 0.852801 0.873985
          0.890917 0.90344 0.912842 0.920223 0.926262 0.931401 0.935944 0.940068 0.943868 0.947365 0.950534 0.953385
          0.531838 0.553654 0.572266 0.586764 0.599568 0.611065 0.621429 0.630764 0.639161 0.646772 0.653627 0.659764
          0.665242 0.67012 0.674459 0.678319 0.681754 0.684816 0.687549 0.689994 0.692187 0.694167 0.695965 0.697609
          0.699119 0.700514 0.701809 0.70302 0.704159 0.705243 0.706291 0.707333 0.708406 0.709554 0.710834 0.712324
          0.714147 0.716492 0.719615 0.724139 0.732161 0.744268 0.760127 0.779442 0.802072 0.82738 0.852904 0.875163
          0.892605 0.905605 0.91526 0.607527 0.533227 0.552679 0.570873 0.58634 0.59956 0.610924 0.620691 0.629282
          0.636842 0.643419 0.649135 0.654102 0.65842 0.66218 0.665461 0.668333 0.670853 0.673073 0.675036 0.676784
          0.678354 0.679774 0.681063 0.682241 0.683322 0.684319 0.685244 0.686107 0.686915 0.68768 0.688407 0.689107
          0.689785 0.690449 0.691106 0.691763 0.692432 0.693131 0.693892 0.694752 0.695747 0.696911 0.698295 0.70001
          0.702312 0.705626 0.710324 0.716456 0.724725 0.73659 0.430117 0.493224 0.530749 0.554937 0.573 0.587233
          0.598807 0.608485 0.616608 0.623424 0.629164 0.634013 0.638122 0.641619 0.644607 0.647173 0.649388 0.65131
          0.652987 0.654464 0.655778 0.656957 0.658021 0.658987 0.659869 0.660679 0.661429 0.662127 0.662782 0.6634
          0.663987 0.66455 0.665093 0.66562 0.666137 0.666646 0.667151 0.667656 0.668164 0.66868 0.669207 0.669751
          0.670318 0.670916 0.671559 0.672271 0.673085 0.674034 0.675146 0.676443 0.677961 0.40123 0.482799 0.520288
          0.54302 0.559374 0.571915 0.581826 0.589783 0.596235 0.601502 0.605829 0.609405 0.612378 0.614865 0.616961
          0.61874 0.62026 0.621572 0.622719 0.623734 0.624638 0.62545 0.626183 0.62685 0.627463 0.628031 0.62856
          0.629058 0.62953 0.629983 0.63042 0.630845 0.631263 0.631677 0.632089 0.632504 0.632923 0.633349 0.633783
[...]
      <CellData Scalars="process rank">
        <DataArray type="Float32" Name="process rank" NumberOfComponents="1" format="ascii">
          0 0 0 0 0 0 0 0 0 0 0 0
          0 0 0 0 0 0 0 0 0 0 0 0
          0 0 0 0 0 0 0 0 0 0 0 0
          0 0 0 0 0 0 0 0 0 0 0 0
          0 0 0 0 0 0 0 0 0 0 0 0
          0 0 0 0 0 0 0 0 0 0 0 0
          0 0 0 0 0 0 0 0 0 0 0 0
          0 0 0 0 0 0 0 0 0 0 0 0
          0 0 0 0 0 0 0 0 0 0 0 0
          0 0 0 0 0 0 0 0 0 0 0 0
          0 0 0 0 0 0 0 0 0 0 0 0
          0 0 0 0 0 0 0 0 0 0 0 0
          0 0 0 0 0 0 0 0 0 0 0 0
          0 0 0 0 0 0 0 0 0 0 0 0
          0 0 0 0 0 0 0 0 0 0 0 0
          0 0 0 0 0 0 0 0 0 0 0 0
          0 0 0 0 0 0 0 0 0 0 0 0
          0 0 0 0 0 0 0 0 0 0 0 0
          0 0 0 0 0 0 0 0 0 0 0 0
          0 0 0 0 0 0 0 0 0 0 0 0
          0 0 0 0 0 0 0 0 0 0 0 0
          0 0 0 0 0 0 0 0 0 0 0 0
          0 0 0 0 0 0 0 0 0 0 0 0
          0 0 0 0 0 0 0 0 0 0 0 0
          0 0 0 0 0 0 0 0 0 0 0 0
          0 0 0 0 0 0 0 0 0 0 0 0
          0 0 0 0 0 0 0 0 0 0 0 0
          0 0 0 0 0 0 0 0 0 0 0 0
          0 0 0 0 0 0 0 0 0 0 0 0
          0 0 0 0 0 0 0 0 0 0 0 0
          0 0 0 0 0 0 0 0 0 0 0 0
          0 0 0 0 0 0 0 0 0 0 0 0
          0 0 0 0 0 0 0 0 0 0 0 0
          0 0 0 0 0 0 0 0 0 0 0 0
          0 0 0 0 0 0 0 0 0 0 0 0
          0 0 0 0 0 0 0 0 0 0 0 0
          0 0 0 0 0 0 0 0 0 0 0 0
          0 0 0 0 0 0 0 0 0 0 0 0
          0 0 0 0 0 0 0 0 0 0 0 0
          0 0 0 0 0 0 0 0 0 0 0 0
          0 0 0 0 0 0 0 0 0 0 0 0
          0 0 0 0 0 0 0 0 0 0 0 0
          0 0 0 0 0 0 0 0 0 0 0 0
          0 0 0 0 0 0 0 0 0 0 0 0
          0 0 0 0 0 0 0 0 0 0 0 0
          0 0 0 0 0 0 0 0 0 0 0 0
          0 0 0 0 0 0 0 0 0 0 0 0
          0 0 0 0 0 0 0 0 0 0 0 0
          0 0 0 0 0 0 0 0 0 0 0 0
          0 0 0 0 0 0 0 0 0 0 0 0
          0 0 0 0 0 0 0 0 0 0 0 0
          0 0 0 0 0 0 0 0 0 0 0 0
          0 0 0 0 0 0 0 0 0 0 0 0
          0 0 0 0 0 0 0 0 0 0 0 0
          0 0 0 0 0 0 0 0 0 0 0 0
          0 0 0 0 0 0 0 0 0 0 0 0
          0 0 0 0 0 0 0 0 0 0 0 0
          0 0 0 0 0 0 0 0 0 0 0 0
          0 0 0 0 0 0 0 0 0 0 0 0
          0 0 0 0 0 0 0 0 0 0 0 0
          0 0 0 0 0 0 0 0 0 0 0 0
          0 0 0 0 0 0 0 0 0 0 0 0
          0 0 0 0 0 0 0 0 0 0 0 0
          0 0 0 0 0 0 0 0 0 0 0 0
          0 0 0 0 0 0 0 0 0 0 0 0
          0 0 0 0 0 0 0 0 0 0 0 0
          0 0 0 0 0 0 0 0 0 0 0 0
          0 0 0 0 0 0 0 0 0 0 0 0
          0 0 0 0 0 0 0 0 0 0 0 0
          0 0 0 0 0 0 0 0 0 0 0 0
          0 0 0 0 0 0 0 0 0 0 0 0
          0 0 0 0 0 0 0 0 0 0 0 0
          0 0 0 0 0 0 0 0 0 0 0 0
          0 0 0 0 0 0 0 0 0 0 0 0
          0 0 0 0 0 0 0 0 0 0 0 0
          0 0 0 0 0 0 0 0 0 0 0 0
          0 0 0 0 0 0 0 0 0 0 0 0
          0 0 0 0 0 0 0 0 0 0 0 0
          0 0 0 0 0 0 0 0 0 0 0 0
          0 0 0 0 0 0 0 0 0 0 0 0
          0 0 0 0 0 0 0 0 0 0 0 0
          0 0 0 0 0 0 0 0 0 0 0 0
          0 0 0 0 0 0 0 0 0 0 0 0
          0 0 0 0
        </DataArray>
      </CellData>
      <Points>
        <DataArray type="Float32" Name="Coordinates" NumberOfComponents="3" format="ascii">
          0.2 0 0 5.2 0 0 0.2 3 0 5.2 3 0
          10.2 0 0 10.2 3 0 15.2 0 0 15.2 3 0
          20.2 0 0 20.2 3 0 25.2 0 0 25.2 3 0
          30.2 0 0 30.2 3 0 35.2 0 0 35.2 3 0
          40.2 0 0 40.2 3 0 45.2 0 0 45.2 3 0
          50.2 0 0 50.2 3 0 55.2 0 0 55.2 3 0
          60.2 0 0 60.2 3 0 65.2 0 0 65.2 3 0
          70.2 0 0 70.2 3 0 75.2 0 0 75.2 3 0
          80.2 0 0 80.2 3 0 85.2 0 0 85.2 3 0
          90.2 0 0 90.2 3 0 95.2 0 0 95.2 3 0
          100.2 0 0 100.2 3 0 105.2 0 0 105.2 3 0
          110.2 0 0 110.2 3 0 115.2 0 0 115.2 3 0
          120.2 0 0 120.2 3 0 125.2 0 0 125.2 3 0
          130.2 0 0 130.2 3 0 135.2 0 0 135.2 3 0
          140.2 0 0 140.2 3 0 145.2 0 0 145.2 3 0
          150.2 0 0 150.2 3 0 155.2 0 0 155.2 3 0
          160.2 0 0 160.2 3 0 165.2 0 0 165.2 3 0
          170.2 0 0 170.2 3 0 175.2 0 0 175.2 3 0
          180.2 0 0 180.2 3 0 185.2 0 0 185.2 3 0
          190.2 0 0 190.2 3 0 195.2 0 0 195.2 3 0
          200.2 0 0 200.2 3 0 205.2 0 0 205.2 3 0
          210.2 0 0 210.2 3 0 215.2 0 0 215.2 3 0
          220.2 0 0 220.2 3 0 225.2 0 0 225.2 3 0
          230.2 0 0 230.2 3 0 235.2 0 0 235.2 3 0
          240.2 0 0 240.2 3 0 245.2 0 0 245.2 3 0
          250.2 0 0 250.2 3 0 0.2 6 0 5.2 6 0
          10.2 6 0 15.2 6 0 20.2 6 0 25.2 6 0
          30.2 6 0 35.2 6 0 40.2 6 0 45.2 6 0
          50.2 6 0 55.2 6 0 60.2 6 0 65.2 6 0
          70.2 6 0 75.2 6 0 80.2 6 0 85.2 6 0
          90.2 6 0 95.2 6 0 100.2 6 0 105.2 6 0
          110.2 6 0 115.2 6 0 120.2 6 0 125.2 6 0
          130.2 6 0 135.2 6 0 140.2 6 0 145.2 6 0
          150.2 6 0 155.2 6 0 160.2 6 0 165.2 6 0
          170.2 6 0 175.2 6 0 180.2 6 0 185.2 6 0
          190.2 6 0 195.2 6 0 200.2 6 0 205.2 6 0
          210.2 6 0 215.2 6 0 220.2 6 0 225.2 6 0
          230.2 6 0 235.2 6 0 240.2 6 0 245.2 6 0
          250.2 6 0 0.2 9 0 5.2 9 0 10.2 9 0
          15.2 9 0 20.2 9 0 25.2 9 0 30.2 9 0
          35.2 9 0 40.2 9 0 45.2 9 0 50.2 9 0
          55.2 9 0 60.2 9 0 65.2 9 0 70.2 9 0
          75.2 9 0 80.2 9 0 85.2 9 0 90.2 9 0
          95.2 9 0 100.2 9 0 105.2 9 0 110.2 9 0
          115.2 9 0 120.2 9 0 125.2 9 0 130.2 9 0
          135.2 9 0 140.2 9 0 145.2 9 0 150.2 9 0
          155.2 9 0 160.2 9 0 165.2 9 0 170.2 9 0
          175.2 9 0 180.2 9 0 185.2 9 0 190.2 9 0
          195.2 9 0 200.2 9 0 205.2 9 0 210.2 9 0
          215.2 9 0 220.2 9 0 225.2 9 0 230.2 9 0
          235.2 9 0 240.2 9 0 245.2 9 0 250.2 9 0
          0.2 12 0 5.2 12 0 10.2 12 0 15.2 12 0
          20.2 12 0 25.2 12 0 30.2 12 0 35.2 12 0
          40.2 12 0 45.2 12 0 50.2 12 0 55.2 12 0
          60.2 12 0 65.2 12 0 70.2 12 0 75.2 12 0
          80.2 12 0 85.2 12 0 90.2 12 0 95.2 12 0
          100.2 12 0 105.2 12 0 110.2 12 0 115.2 12 0
          120.2 12 0 125.2 12 0 130.2 12 0 135.2 12 0
          140.2 12 0 145.2 12 0 150.2 12 0 155.2 12 0
          160.2 12 0 165.2 12 0 170.2 12 0 175.2 12 0
          180.2 12 0 185.2 12 0 190.2 12 0 195.2 12 0
          200.2 12 0 205.2 12 0 210.2 12 0 215.2 12 0
          220.2 12 0 225.2 12 0 230.2 12 0 235.2 12 0
          240.2 12 0 245.2 12 0 250.2 12 0 0.2 15 0
          5.2 15 0 10.2 15 0 15.2 15 0 20.2 15 0
          25.2 15 0 30.2 15 0 35.2 15 0 40.2 15 0
          45.2 15 0 50.2 15 0 55.2 15 0 60.2 15 0
          65.2 15 0 70.2 15 0 75.2 15 0 80.2 15 0
          85.2 15 0 90.2 15 0 95.2 15 0 100.2 15 0
          105.2 15 0 110.2 15 0 115.2 15 0 120.2 15 0
          125.2 15 0 130.2 15 0 135.2 15 0 140.2 15 0
          145.2 15 0 150.2 15 0 155.2 15 0 160.2 15 0
          165.2 15 0 170.2 15 0 175.2 15 0 180.2 15 0
          185.2 15 0 190.2 15 0 195.2 15 0 200.2 15 0
          205.2 15 0 210.2 15 0 215.2 15 0 220.2 15 0
          225.2 15 0 230.2 15 0 235.2 15 0 240.2 15 0
          245.2 15 0 250.2 15 0 0.2 18 0 5.2 18 0
          10.2 18 0 15.2 18 0 20.2 18 0 25.2 18 0
          30.2 18 0 35.2 18 0 40.2 18 0 45.2 18 0
          50.2 18 0 55.2 18 0 60.2 18 0 65.2 18 0
          70.2 18 0 75.2 18 0 80.2 18 0 85.2 18 0
          90.2 18 0 95.2 18 0 100.2 18 0 105.2 18 0
          110.2 18 0 115.2 18 0 120.2 18 0 125.2 18 0
          130.2 18 0 135.2 18 0 140.2 18 0 145.2 18 0
          150.2 18 0 155.2 18 0 160.2 18 0 165.2 18 0
          170.2 18 0 175.2 18 0 180.2 18 0 185.2 18 0
          190.2 18 0 195.2 18 0 200.2 18 0 205.2 18 0
          210.2 18 0 215.2 18 0 220.2 18 0 225.2 18 0
          230.2 18 0 235.2 18 0 240.2 18 0 245.2 18 0
          250.2 18 0 0.2 21 0 5.2 21 0 10.2 21 0
          15.2 21 0 20.2 21 0 25.2 21 0 30.2 21 0
          35.2 21 0 40.2 21 0 45.2 21 0 50.2 21 0
          55.2 21 0 60.2 21 0 65.2 21 0 70.2 21 0
          75.2 21 0 80.2 21 0 85.2 21 0 90.2 21 0
          95.2 21 0 100.2 21 0 105.2 21 0 110.2 21 0
          115.2 21 0 120.2 21 0 125.2 21 0 130.2 21 0
          135.2 21 0 140.2 21 0 145.2 21 0 150.2 21 0
          155.2 21 0 160.2 21 0 165.2 21 0 170.2 21 0
          175.2 21 0 180.2 21 0 185.2 21 0 190.2 21 0
          195.2 21 0 200.2 21 0 205.2 21 0 210.2 21 0
          215.2 21 0 220.2 21 0 225.2 21 0 230.2 21 0
          235.2 21 0 240.2 21 0 245.2 21 0 250.2 21 0
          0.2 24 0 5.2 24 0 10.2 24 0 15.2 24 0
          20.2 24 0 25.2 24 0 30.2 24 0 35.2 24 0
          40.2 24 0 45.2 24 0 50.2 24 0 55.2 24 0
          60.2 24 0 65.2 24 0 70.2 24 0 75.2 24 0
          80.2 24 0 85.2 24 0 90.2 24 0 95.2 24 0
          100.2 24 0 105.2 24 0 110.2 24 0 115.2 24 0
          120.2 24 0 125.2 24 0 130.2 24 0 135.2 24 0
          140.2 24 0 145.2 24 0 150.2 24 0 155.2 24 0
          160.2 24 0 165.2 24 0 170.2 24 0 175.2 24 0
          180.2 24 0 185.2 24 0 190.2 24 0 195.2 24 0
          200.2 24 0 205.2 24 0 210.2 24 0 215.2 24 0
          220.2 24 0 225.2 24 0 230.2 24 0 235.2 24 0
          240.2 24 0 245.2 24 0 250.2 24 0 0.2 27 0
          5.2 27 0 10.2 27 0 15.2 27 0 20.2 27 0
          25.2 27 0 30.2 27 0 35.2 27 0 40.2 27 0
          45.2 27 0 50.2 27 0 55.2 27 0 60.2 27 0
          65.2 27 0 70.2 27 0 75.2 27 0 80.2 27 0
          85.2 27 0 90.2 27 0 95.2 27 0 100.2 27 0
          105.2 27 0 110.2 27 0 115.2 27 0 120.2 27 0
          125.2 27 0 130.2 27 0 135.2 27 0 140.2 27 0
          145.2 27 0 150.2 27 0 155.2 27 0 160.2 27 0
          165.2 27 0 170.2 27 0 175.2 27 0 180.2 27 0
          185.2 27 0 190.2 27 0 195.2 27 0 200.2 27 0
          205.2 27 0 210.2 27 0 215.2 27 0 220.2 27 0
          225.2 27 0 230.2 27 0 235.2 27 0 240.2 27 0
          245.2 27 0 250.2 27 0 0.2 30 0 5.2 30 0
          10.2 30 0 15.2 30 0 20.2 30 0 25.2 30 0
          30.2 30 0 35.2 30 0 40.2 30 0 45.2 30 0
          50.2 30 0 55.2 30 0 60.2 30 0 65.2 30 0
          70.2 30 0 75.2 30 0 80.2 30 0 85.2 30 0
          90.2 30 0 95.2 30 0 100.2 30 0 105.2 30 0
          110.2 30 0 115.2 30 0 120.2 30 0 125.2 30 0
          130.2 30 0 135.2 30 0 140.2 30 0 145.2 30 0
          150.2 30 0 155.2 30 0 160.2 30 0 165.2 30 0
          170.2 30 0 175.2 30 0 180.2 30 0 185.2 30 0
          190.2 30 0 195.2 30 0 200.2 30 0 205.2 30 0
          210.2 30 0 215.2 30 0 220.2 30 0 225.2 30 0
          230.2 30 0 235.2 30 0 240.2 30 0 245.2 30 0
          250.2 30 0 0.2 33 0 5.2 33 0 10.2 33 0
          15.2 33 0 20.2 33 0 25.2 33 0 30.2 33 0
          35.2 33 0 40.2 33 0 45.2 33 0 50.2 33 0
          55.2 33 0 60.2 33 0 65.2 33 0 70.2 33 0
          75.2 33 0 80.2 33 0 85.2 33 0 90.2 33 0
          95.2 33 0 100.2 33 0 105.2 33 0 110.2 33 0
          115.2 33 0 120.2 33 0 125.2 33 0 130.2 33 0
          135.2 33 0 140.2 33 0 145.2 33 0 150.2 33 0
          155.2 33 0 160.2 33 0 165.2 33 0 170.2 33 0
          175.2 33 0 180.2 33 0 185.2 33 0 190.2 33 0
          195.2 33 0 200.2 33 0 205.2 33 0 210.2 33 0
          215.2 33 0 220.2 33 0 225.2 33 0 230.2 33 0
          235.2 33 0 240.2 33 0 245.2 33 0 250.2 33 0
          0.2 36 0 5.2 36 0 10.2 36 0 15.2 36 0
          20.2 36 0 25.2 36 0 30.2 36 0 35.2 36 0
          40.2 36 0 45.2 36 0 50.2 36 0 55.2 36 0
          60.2 36 0 65.2 36 0 70.2 36 0 75.2 36 0
          80.2 36 0 85.2 36 0 90.2 36 0 95.2 36 0
          100.2 36 0 105.2 36 0 110.2 36 0 115.2 36 0
          120.2 36 0 125.2 36 0 130.2 36 0 135.2 36 0
          140.2 36 0 145.2 36 0 150.2 36 0 155.2 36 0
          160.2 36 0 165.2 36 0 170.2 36 0 175.2 36 0
          180.2 36 0 185.2 36 0 190.2 36 0 195.2 36 0
          200.2 36 0 205.2 36 0 210.2 36 0 215.2 36 0
          220.2 36 0 225.2 36 0 230.2 36 0 235.2 36 0
          240.2 36 0 245.2 36 0 250.2 36 0 0.2 39 0
          5.2 39 0 10.2 39 0 15.2 39 0 20.2 39 0
          25.2 39 0 30.2 39 0 35.2 39 0 40.2 39 0
          45.2 39 0 50.2 39 0 55.2 39 0 60.2 39 0
          65.2 39 0 70.2 39 0 75.2 39 0 80.2 39 0
          85.2 39 0 90.2 39 0 95.2 39 0 100.2 39 0
          105.2 39 0 110.2 39 0 115.2 39 0 120.2 39 0
          125.2 39 0 130.2 39 0 135.2 39 0 140.2 39 0
          145.2 39 0 150.2 39 0 155.2 39 0 160.2 39 0
          165.2 39 0 170.2 39 0 175.2 39 0 180.2 39 0
          185.2 39 0 190.2 39 0 195.2 39 0 200.2 39 0
          205.2 39 0 210.2 39 0 215.2 39 0 220.2 39 0
          225.2 39 0 230.2 39 0 235.2 39 0 240.2 39 0
          245.2 39 0 250.2 39 0 0.2 42 0 5.2 42 0
          10.2 42 0 15.2 42 0 20.2 42 0 25.2 42 0
          30.2 42 0 35.2 42 0 40.2 42 0 45.2 42 0
          50.2 42 0 55.2 42 0 60.2 42 0 65.2 42 0
          70.2 42 0 75.2 42 0 80.2 42 0 85.2 42 0
          90.2 42 0 95.2 42 0 100.2 42 0 105.2 42 0
          110.2 42 0 115.2 42 0 120.2 42 0 125.2 42 0
          130.2 42 0 135.2 42 0 140.2 42 0 145.2 42 0
          150.2 42 0 155.2 42 0 160.2 42 0 165.2 42 0
          170.2 42 0 175.2 42 0 180.2 42 0 185.2 42 0
          190.2 42 0 195.2 42 0 200.2 42 0 205.2 42 0
          210.2 42 0 215.2 42 0 220.2 42 0 225.2 42 0
          230.2 42 0 235.2 42 0 240.2 42 0 245.2 42 0
          250.2 42 0 0.2 45 0 5.2 45 0 10.2 45 0
          15.2 45 0 20.2 45 0 25.2 45 0 30.2 45 0
          35.2 45 0 40.2 45 0 45.2 45 0 50.2 45 0
          55.2 45 0 60.2 45 0 65.2 45 0 70.2 45 0
          75.2 45 0 80.2 45 0 85.2 45 0 90.2 45 0
          95.2 45 0 100.2 45 0 105.2 45 0 110.2 45 0
          115.2 45 0 120.2 45 0 125.2 45 0 130.2 45 0
          135.2 45 0 140.2 45 0 145.2 45 0 150.2 45 0
          155.2 45 0 160.2 45 0 165.2 45 0 170.2 45 0
          175.2 45 0 180.2 45 0 185.2 45 0 190.2 45 0
          195.2 45 0 200.2 45 0 205.2 45 0 210.2 45 0
          215.2 45 0 220.2 45 0 225.2 45 0 230.2 45 0
          235.2 45 0 240.2 45 0 245.2 45 0 250.2 45 0
          0.2 48 0 5.2 48 0 10.2 48 0 15.2 48 0
          20.2 48 0 25.2 48 0 30.2 48 0 35.2 48 0
          40.2 48 0 45.2 48 0 50.2 48 0 55.2 48 0
          60.2 48 0 65.2 48 0 70.2 48 0 75.2 48 0
          80.2 48 0 85.2 48 0 90.2 48 0 95.2 48 0
          100.2 48 0 105.2 48 0 110.2 48 0 115.2 48 0
          120.2 48 0 125.2 48 0 130.2 48 0 135.2 48 0
          140.2 48 0 145.2 48 0 150.2 48 0 155.2 48 0
          160.2 48 0 165.2 48 0 170.2 48 0 175.2 48 0
          180.2 48 0 185.2 48 0 190.2 48 0 195.2 48 0
          200.2 48 0 205.2 48 0 210.2 48 0 215.2 48 0
          220.2 48 0 225.2 48 0 230.2 48 0 235.2 48 0
          240.2 48 0 245.2 48 0 250.2 48 0 0.2 51 0
          5.2 51 0 10.2 51 0 15.2 51 0 20.2 51 0
          25.2 51 0 30.2 51 0 35.2 51 0 40.2 51 0
          45.2 51 0 50.2 51 0 55.2 51 0 60.2 51 0
          65.2 51 0 70.2 51 0 75.2 51 0 80.2 51 0
          85.2 51 0 90.2 51 0 95.2 51 0 100.2 51 0
          105.2 51 0 110.2 51 0 115.2 51 0 120.2 51 0
          125.2 51 0 130.2 51 0 135.2 51 0 140.2 51 0
          145.2 51 0 150.2 51 0 155.2 51 0 160.2 51 0
          165.2 51 0 170.2 51 0 175.2 51 0 180.2 51 0
          185.2 51 0 190.2 51 0 195.2 51 0 200.2 51 0
          205.2 51 0 210.2 51 0 215.2 51 0 220.2 51 0
          225.2 51 0 230.2 51 0 235.2 51 0 240.2 51 0
          245.2 51 0 250.2 51 0 0.2 54 0 5.2 54 0
          10.2 54 0 15.2 54 0 20.2 54 0 25.2 54 0
          30.2 54 0 35.2 54 0 40.2 54 0 45.2 54 0
          50.2 54 0 55.2 54 0 60.2 54 0 65.2 54 0
          70.2 54 0 75.2 54 0 80.2 54 0 85.2 54 0
          90.2 54 0 95.2 54 0 100.2 54 0 105.2 54 0
          110.2 54 0 115.2 54 0 120.2 54 0 125.2 54 0
          130.2 54 0 135.2 54 0 140.2 54 0 145.2 54 0
          150.2 54 0 155.2 54 0 160.2 54 0 165.2 54 0
          170.2 54 0 175.2 54 0 180.2 54 0 185.2 54 0
          190.2 54 0 195.2 54 0 200.2 54 0 205.2 54 0
          210.2 54 0 215.2 54 0 220.2 54 0 225.2 54 0
          230.2 54 0 235.2 54 0 240.2 54 0 245.2 54 0
          250.2 54 0 0.2 57 0 5.2 57 0 10.2 57 0
          15.2 57 0 20.2 57 0 25.2 57 0 30.2 57 0
          35.2 57 0 40.2 57 0 45.2 57 0 50.2 57 0
          55.2 57 0 60.2 57 0 65.2 57 0 70.2 57 0
          75.2 57 0 80.2 57 0 85.2 57 0 90.2 57 0
          95.2 57 0 100.2 57 0 105.2 57 0 110.2 57 0
          115.2 57 0 120.2 57 0 125.2 57 0 130.2 57 0
          135.2 57 0 140.2 57 0 145.2 57 0 150.2 57 0
          155.2 57 0 160.2 57 0 165.2 57 0 170.2 57 0
          175.2 57 0 180.2 57 0 185.2 57 0 190.2 57 0
          195.2 57 0 200.2 57 0 205.2 57 0 210.2 57 0
          215.2 57 0 220.2 57 0 225.2 57 0 230.2 57 0
          235.2 57 0 240.2 57 0 245.2 57 0 250.2 57 0
          0.2 60 0 5.2 60 0 10.2 60 0 15.2 60 0
          20.2 60 0 25.2 60 0 30.2 60 0 35.2 60 0
          40.2 60 0 45.2 60 0 50.2 60 0 55.2 60 0
          60.2 60 0 65.2 60 0 70.2 60 0 75.2 60 0
          80.2 60 0 85.2 60 0 90.2 60 0 95.2 60 0
          100.2 60 0 105.2 60 0 110.2 60 0 115.2 60 0
          120.2 60 0 125.2 60 0 130.2 60 0 135.2 60 0
          140.2 60 0 145.2 60 0 150.2 60 0 155.2 60 0
          160.2 60 0 165.2 60 0 170.2 60 0 175.2 60 0
          180.2 60 0 185.2 60 0 190.2 60 0 195.2 60 0
          200.2 60 0 205.2 60 0 210.2 60 0 215.2 60 0
          220.2 60 0 225.2 60 0 230.2 60 0 235.2 60 0
          240.2 60 0 245.2 60 0 250.2 60 0
        </DataArray>
      </Points>
      <Cells>
        <DataArray type="Int32" Name="connectivity" NumberOfComponents="1" format="ascii">
          0 1 3 2 1 4 5 3 4 6 7 5
          6 8 9 7 8 10 11 9 10 12 13 11
          12 14 15 13 14 16 17 15 16 18 19 17
          18 20 21 19 20 22 23 21 22 24 25 23
          24 26 27 25 26 28 29 27 28 30 31 29
          30 32 33 31 32 34 35 33 34 36 37 35
          36 38 39 37 38 40 41 39 40 42 43 41
          42 44 45 43 44 46 47 45 46 48 49 47
          48 50 51 49 50 52 53 51 52 54 55 53
          54 56 57 55 56 58 59 57 58 60 61 59
          60 62 63 61 62 64 65 63 64 66 67 65
          66 68 69 67 68 70 71 69 70 72 73 71
          72 74 75 73 74 76 77 75 76 78 79 77
          78 80 81 79 80 82 83 81 82 84 85 83
          84 86 87 85 86 88 89 87 88 90 91 89
          90 92 93 91 92 94 95 93 94 96 97 95
          96 98 99 97 98 100 101 99 2 3 103 102
          3 5 104 103 5 7 105 104 7 9 106 105
          9 11 107 106 11 13 108 107 13 15 109 108
          15 17 110 109 17 19 111 110 19 21 112 111
          21 23 113 112 23 25 114 113 25 27 115 114
          27 29 116 115 29 31 117 116 31 33 118 117
          33 35 119 118 35 37 120 119 37 39 121 120
          39 41 122 121 41 43 123 122 43 45 124 123
          45 47 125 124 47 49 126 125 49 51 127 126
          51 53 128 127 53 55 129 128 55 57 130 129
          57 59 131 130 59 61 132 131 61 63 133 132
          63 65 134 133 65 67 135 134 67 69 136 135
          69 71 137 136 71 73 138 137 73 75 139 138
          75 77 140 139 77 79 141 140 79 81 142 141
          81 83 143 142 83 85 144 143 85 87 145 144
          87 89 146 145 89 91 147 146 91 93 148 147
          93 95 149 148 95 97 150 149 97 99 151 150
          99 101 152 151 102 103 154 153 103 104 155 154
          104 105 156 155 105 106 157 156 106 107 158 157
          107 108 159 158 108 109 160 159 109 110 161 160
          110 111 162 161 111 112 163 162 112 113 164 163
          113 114 165 164 114 115 166 165 115 116 167 166
          116 117 168 167 117 118 169 168 118 119 170 169
          119 120 171 170 120 121 172 171 121 122 173 172
          122 123 174 173 123 124 175 174 124 125 176 175
          125 126 177 176 126 127 178 177 127 128 179 178
          128 129 180 179 129 130 181 180 130 131 182 181
          131 132 183 182 132 133 184 183 133 134 185 184
          134 135 186 185 135 136 187 186 136 137 188 187
          137 138 189 188 138 139 190 189 139 140 191 190
          140 141 192 191 141 142 193 192 142 143 194 193
          143 144 195 194 144 145 196 195 145 146 197 196
          146 147 198 197 147 148 199 198 148 149 200 199
          149 150 201 200 150 151 202 201 151 152 203 202
          153 154 205 204 154 155 206 205 155 156 207 206
          156 157 208 207 157 158 209 208 158 159 210 209
          159 160 211 210 160 161 212 211 161 162 213 212
          162 163 214 213 163 164 215 214 164 165 216 215
          165 166 217 216 166 167 218 217 167 168 219 218
          168 169 220 219 169 170 221 220 170 171 222 221