<?xml version="1.0"?>
<VTKFile type="UnstructuredGrid" version="0.1" byte_order="LittleEndian">
  <UnstructuredGrid>
    <Piece NumberOfCells="380" NumberOfPoints="420">
      <PointData Scalars="S_liq" Vectors="velocity_liq (m/s)">
        <DataArray type="Float32" Name="S_liq" NumberOfComponents="1" format="ascii">
          0.999999 0.999999 0.999999 0.999999 0.999999 0.999999 0.999999 0.999999 0.999999 0.999999 0.999999 0.999999
          0.999999 0.999999 0.999999 0.999999 0.999999 0.999999 0.999999 0.999999 0.999999 0.999999 0.999999 0.999999
          0.999999 0.999999 0.999999 0.999999 0.999999 0.999999 0.999999 0.999999 0.999999 0.999999 0.999999 0.999999
          0.999999 0.999999 0.999999 0.999999 0.999999 0.999999 0.999999 0.999999 0.999999 0.999999 0.999999 0.999999
          0.999999 0.999999 0.999999 0.999999 0.999999 0.999999 0.999999 0.999999 0.999999 0.999999 0.999999 0.999999
          0.999999 0.999999 0.999999 0.999999 0.999999 0.999999 0.999999 0.999999 0.999999 0.999999 0.999999 0.999999
          0.999999 0.999999 0.999999 0.999999 0.999999 0.999999 0.999999 0.999999 0.999999 0.999999 0.999999 0.999999
          0.999999 0.999999 0.999999 0.999999 0.999999 0.999999 0.999999 0.999999 0.999999 0.999999 0.999999 0.999999
          0.999999 0.999999 0.999999 0.999999 0.999999 0.999999 0.999999 0.999999 0.999999 0.999999 0.999999 0.999999
          0.999999 0.999999 0.999999 0.999999 0.999999 0.999999 0.999999 0.999999 0.999999 0.999999 0.999999 0.999999
          0.999999 0.999999 0.999999 0.999999 0.999999 0.999999 0.999999 0.999999 0.999999 0.999999 0.999999 0.999999
          0.999999 0.999999 0.999999 0.999999 0.999999 0.999999 0.999999 0.999999 0.999999 0.999999 0.999999 0.999999
          0.999999 0.999999 0.999999 0.999999 0.999999 0.999999 0.999999 0.999999 0.999999 0.999999 0.999999 0.999999
          0.999999 0.999999 0.999999 0.999999 0.999999 0.999999 0.999999 0.999999 0.999999 0.999999 0.999999 0.999999
          0.999999 0.999999 0.999999 0.999999 0.999999 0.999999 0.999999 0.999999 0.999999 0.999999 0.999999 0.999999
          0.999999 0.999999 0.999999 0.999999 0.999999 0.999999 0.999999 0.999999 0.999999 0.999999 0.999999 0.999999
          0.999999 0.999999 0.999999 0.999999 0.999999 0.999999 0.999999 0.999999 0.999999 0.999999 0.999999 0.999999
          0.999999 0.999999 0.999999 0.999999 0.999999 0.999999 0.999999 0.999999 0.999999 0.999999 0.999999 0.999999
          0.999999 0.999999 0.999999 0.999999 0.999999 0.999999 0.999999 0.999999 0.999999 0.999999 0.999999 0.999999
          0.999999 0.999999 0.999999 0.999999 0.999999 0.999999 0.999999 0.999999 0.999999 0.999999 0.999999 0.999999
          0.999999 0.999999 0.999999 0.999999 0.999999 0.999999 0.999999 0.999999 0.999999 0.999999 0.999999 0.999999
          0.999999 0.999999 0.999999 0.999999 0.999999 0.999999 0.999999 0.999999 0.999999 0.999999 0.999999 0.999999
          0.999999 0.999999 0.999999 0.999999 0.999999 0.999999 0.999999 0.999999 0.999999 0.999999 0.999999 0.999999
          0.999999 0.999999 0.999999 0.999999 0.999999 0.999999 0.999999 0.999999 0.999999 0.999999 0.999999 0.999999
          0.999999 0.999999 0.999999 0.999999 0.999999 0.999999 0.999999 0.999999 0.999999 0.999999 0.999999 0.999999
          0.999999 0.999999 0.999999 0.999999 0.999999 0.999999 0.999999 0.999999 0.999999 0.999999 0.999999 0.999999
          0.999999 0.999999 0.999999 0.999999 0.999999 0.999999 0.999999 0.999999 0.999999 0.999999 0.999999 0.999999
          0.999999 0.999999 0.999999 0.999999 0.999999 0.999999 0.999999 0.999999 0.999999 0.999999 0.999999 0.999999
          0.999999 0.999999 0.999999 0.999999 0.999999 0.999999 0.999999 0.999999 0.999999 0.999999 0.999999 0.999999
          0.999999 0.999999 0.999999 0.999999 0.999999 0.999999 0.999999 0.999999 0.999999 0.999999 0.999999 0.999999
          0.999999 0.999999 0.999999 0.999999 0.999999 0.999999 0.999999 0.999999 0.999999 0.999999 0.999999 0.999999
          0.999999 0.999999 0.999999 0.999999 0.999999 0.999999 0.999999 0.999999 0.999999 0.999999 0.999999 0.999999
          0.999999 0.999999 0.999999 0.999999 0.999999 0.999999 0.999999 0.999999 0.999999 0.999999 0.999999 0.999999
          0.999999 0.999999 0.999999 0.999999 0.999999 0.999999 0.999999 0.999999 0.999999 0.999999 0.999999 0.999999
          0.999999 0.999999 0.999999 0.999999 0.999999 0.999999 0.999999 0.999999 0.999999 0.999999 0.999999 0.999999
        </DataArray>
        <DataArray type="Float32" Name="p_liq" NumberOfComponents="1" format="ascii">
          2.07494e+07 2.07446e+07 2.072e+07 2.07151e+07 2.07397e+07 2.07103e+07 2.07349e+07 2.07055e+07 2.07301e+07 2.07007e+07 2.07254e+07 2.0696e+07
          2.07207e+07 2.06913e+07 2.07161e+07 2.06866e+07 2.07115e+07 2.0682e+07 2.07069e+07 2.06775e+07 2.07024e+07 2.06729e+07 2.06979e+07 2.06684e+07
          2.06934e+07 2.0664e+07 2.0689e+07 2.06596e+07 2.06846e+07 2.06552e+07 2.06802e+07 2.06508e+07 2.06759e+07 2.06465e+07 2.06716e+07 2.06422e+07
          2.06674e+07 2.0638e+07 2.06632e+07 2.06337e+07 2.06906e+07 2.06857e+07 2.06808e+07 2.0676e+07 2.06713e+07 2.06665e+07 2.06619e+07 2.06572e+07
          2.06526e+07 2.0648e+07 2.06435e+07 2.0639e+07 2.06345e+07 2.06301e+07 2.06257e+07 2.06214e+07 2.06171e+07 2.06128e+07 2.06085e+07 2.06043e+07
          2.06612e+07 2.06563e+07 2.06514e+07 2.06466e+07 2.06418e+07 2.06371e+07 2.06324e+07 2.06278e+07 2.06232e+07 2.06186e+07 2.06141e+07 2.06096e+07
          2.06051e+07 2.06007e+07 2.05963e+07 2.0592e+07 2.05876e+07 2.05834e+07 2.05791e+07 2.05749e+07 2.06317e+07 2.06268e+07 2.0622e+07 2.06172e+07
          2.06124e+07 2.06077e+07 2.0603e+07 2.05983e+07 2.05937e+07 2.05892e+07 2.05846e+07 2.05801e+07 2.05757e+07 2.05713e+07 2.05669e+07 2.05625e+07
          2.05582e+07 2.05539e+07 2.05497e+07 2.05455e+07 2.06023e+07 2.05974e+07 2.05926e+07 2.05877e+07 2.0583e+07 2.05782e+07 2.05736e+07 2.05689e+07
          2.05643e+07 2.05597e+07 2.05552e+07 2.05507e+07 2.05463e+07 2.05418e+07 2.05374e+07 2.05331e+07 2.05288e+07 2.05245e+07 2.05202e+07 2.0516e+07
          2.05729e+07 2.0568e+07 2.05631e+07 2.05583e+07 2.05535e+07 2.05488e+07 2.05441e+07 2.05395e+07 2.05349e+07 2.05303e+07 2.05258e+07 2.05213e+07
          2.05168e+07 2.05124e+07 2.0508e+07 2.05037e+07 2.04993e+07 2.04951e+07 2.04908e+07 2.04866e+07 2.05434e+07 2.05385e+07 2.05337e+07 2.05289e+07
          2.05241e+07 2.05194e+07 2.05147e+07 2.05101e+07 2.05054e+07 2.05009e+07 2.04964e+07 2.04919e+07 2.04874e+07 2.0483e+07 2.04786e+07 2.04742e+07
          2.04699e+07 2.04656e+07 2.04614e+07 2.04572e+07 2.0514e+07 2.05091e+07 2.05043e+07 2.04995e+07 2.04947e+07 2.049e+07 2.04853e+07 2.04806e+07
          2.0476e+07 2.04714e+07 2.04669e+07 2.04624e+07 2.0458e+07 2.04535e+07 2.04492e+07 2.04448e+07 2.04405e+07 2.04362e+07 2.0432e+07 2.04277e+07
          2.04846e+07 2.04797e+07 2.04748e+07 2.047e+07 2.04653e+07 2.04605e+07 2.04558e+07 2.04512e+07 2.04466e+07 2.0442e+07 2.04375e+07 2.0433e+07
          2.04285e+07 2.04241e+07 2.04197e+07 2.04154e+07 2.04111e+07 2.04068e+07 2.04025e+07 2.03983e+07 2.04551e+07 2.04503e+07 2.04454e+07 2.04406e+07
          2.04358e+07 2.04311e+07 2.04264e+07 2.04218e+07 2.04172e+07 2.04126e+07 2.04081e+07 2.04036e+07 2.03991e+07 2.03947e+07 2.03903e+07 2.03859e+07
          2.03816e+07 2.03773e+07 2.03731e+07 2.03689e+07 2.04257e+07 2.04208e+07 2.0416e+07 2.04112e+07 2.04064e+07 2.04017e+07 2.0397e+07 2.03923e+07
          2.03877e+07 2.03832e+07 2.03786e+07 2.03741e+07 2.03697e+07 2.03653e+07 2.03609e+07 2.03565e+07 2.03522e+07 2.03479e+07 2.03437e+07 2.03394e+07
          2.03963e+07 2.03914e+07 2.03865e+07 2.03817e+07 2.0377e+07 2.03722e+07 2.03676e+07 2.03629e+07 2.03583e+07 2.03537e+07 2.03492e+07 2.03447e+07
          2.03402e+07 2.03358e+07 2.03314e+07 2.03271e+07 2.03228e+07 2.03185e+07 2.03142e+07 2.031e+07 2.03669e+07 2.0362e+07 2.03571e+07 2.03523e+07
          2.03475e+07 2.03428e+07 2.03381e+07 2.03335e+07 2.03289e+07 2.03243e+07 2.03198e+07 2.03153e+07 2.03108e+07 2.03064e+07 2.0302e+07 2.02977e+07
          2.02933e+07 2.02891e+07 2.02848e+07 2.02806e+07 2.03374e+07 2.03325e+07 2.03277e+07 2.03229e+07 2.03181e+07 2.03134e+07 2.03087e+07 2.0304e+07
          2.02994e+07 2.02949e+07 2.02903e+07 2.02858e+07 2.02814e+07 2.0277e+07 2.02726e+07 2.02682e+07 2.02639e+07 2.02596e+07 2.02554e+07 2.02512e+07
          2.0308e+07 2.03031e+07 2.02983e+07 2.02934e+07 2.02887e+07 2.0284e+07 2.02793e+07 2.02746e+07 2.027e+07 2.02654e+07 2.02609e+07 2.02564e+07
          2.0252e+07 2.02475e+07 2.02431e+07 2.02388e+07 2.02345e+07 2.02302e+07 2.02259e+07 2.02217e+07 2.02786e+07 2.02737e+07 2.02688e+07 2.0264e+07
          2.02592e+07 2.02545e+07 2.02498e+07 2.02452e+07 2.02406e+07 2.0236e+07 2.02315e+07 2.0227e+07 2.02225e+07 2.02181e+07 2.02137e+07 2.02094e+07
          2.0205e+07 2.02008e+07 2.01965e+07 2.01923e+07 2.02491e+07 2.02442e+07 2.02394e+07 2.02346e+07 2.02298e+07 2.02251e+07 2.02204e+07 2.02158e+07
          2.02112e+07 2.02066e+07 2.0202e+07 2.01976e+07 2.01931e+07 2.01887e+07 2.01843e+07 2.01799e+07 2.01756e+07 2.01713e+07 2.01671e+07 2.01629e+07
          2.02197e+07 2.02148e+07 2.021e+07 2.02052e+07 2.02004e+07 2.01957e+07 2.0191e+07 2.01863e+07 2.01817e+07 2.01772e+07 2.01726e+07 2.01681e+07
          2.01637e+07 2.01592e+07 2.01549e+07 2.01505e+07 2.01462e+07 2.01419e+07 2.01376e+07 2.01334e+07 2.01903e+07 2.01854e+07 2.01805e+07 2.01757e+07
          2.0171e+07 2.01662e+07 2.01615e+07 2.01569e+07 2.01523e+07 2.01477e+07 2.01432e+07 2.01387e+07 2.01342e+07 2.01298e+07 2.01254e+07 2.01211e+07
          2.01168e+07 2.01125e+07 2.01082e+07 2.0104e+07 2.01608e+07 2.0156e+07 2.01511e+07 2.01463e+07 2.01415e+07 2.01368e+07 2.01321e+07 2.01275e+07
          2.01229e+07 2.01183e+07 2.01138e+07 2.01093e+07 2.01048e+07 2.01004e+07 2.0096e+07 2.00916e+07 2.00873e+07 2.0083e+07 2.00788e+07 2.00746e+07
        </DataArray>
        <DataArray type="Float32" Name="rho_liq" NumberOfComponents="1" format="ascii">
[...]
      <CellData Scalars="process rank">
        <DataArray type="Float32" Name="process rank" NumberOfComponents="1" format="ascii">
          6 6 6 6 6 6 6 6 6 6 6 6
          6 6 6 6 6 6 6 6 6 6 6 6
          6 6 6 6 6 6 6 6 6 6 6 6
          6 6 6 6 6 6 6 6 6 6 6 6
          6 6 6 6 6 6 6 6 6 6 6 6
          6 6 6 6 6 6 6 6 6 6 6 6
          6 6 6 6 6 6 6 6 6 6 6 6
          6 6 6 6 6 6 6 6 6 6 6 6
          6 6 6 6 6 6 6 6 6 6 6 6
          6 6 6 6 6 6 6 6 6 6 6 6
          6 6 6 6 6 6 6 6 6 6 6 6
          6 6 6 6 6 6 6 6 6 6 6 6
          6 6 6 6 6 6 6 6 6 6 6 6
          6 6 6 6 6 6 6 6 6 6 6 6
          6 6 6 6 6 6 6 6 6 6 6 6
          6 6 6 6 6 6 6 6 6 6 6 6
          6 6 6 6 6 6 6 6 6 6 6 6
          6 6 6 6 6 6 6 6 6 6 6 6
          6 6 6 6 6 6 6 6 6 6 6 6
          6 6 6 6 6 6 6 6 6 6 6 6
          6 6 6 6 6 6 6 6 6 6 6 6
          6 6 6 6 6 6 6 6 6 6 6 6
          6 6 6 6 6 6 6 6 6 6 6 6
          6 6 6 6 6 6 6 6 6 6 6 6
          6 6 6 6 6 6 6 6 6 6 6 6
          6 6 6 6 6 6 6 6 6 6 6 6
          6 6 6 6 6 6 6 6 6 6 6 6
          6 6 6 6 6 6 6 6 6 6 6 6
          6 6 6 6 6 6 6 6 6 6 6 6
          6 6 6 6 6 6 6 6 6 6 6 6
          6 6 6 6 6 6 6 6 6 6 6 6
          6 6 6 6 6 6 6 6
        </DataArray>
      </CellData>
      <Points>
        <DataArray type="Float32" Name="Coordinates" NumberOfComponents="3" format="ascii">
          746.867 0 0 753.533 0 0 746.867 3 0 753.533 3 0
          760.2 0 0 760.2 3 0 766.867 0 0 766.867 3 0
          773.533 0 0 773.533 3 0 780.2 0 0 780.2 3 0
          786.867 0 0 786.867 3 0 793.533 0 0 793.533 3 0
          800.2 0 0 800.2 3 0 806.867 0 0 806.867 3 0
          813.533 0 0 813.533 3 0 820.2 0 0 820.2 3 0
          826.867 0 0 826.867 3 0 833.533 0 0 833.533 3 0
          840.2 0 0 840.2 3 0 846.867 0 0 846.867 3 0
          853.533 0 0 853.533 3 0 860.2 0 0 860.2 3 0
          866.867 0 0 866.867 3 0 873.533 0 0 873.533 3 0
          746.867 6 0 753.533 6 0 760.2 6 0 766.867 6 0
          773.533 6 0 780.2 6 0 786.867 6 0 793.533 6 0
          800.2 6 0 806.867 6 0 813.533 6 0 820.2 6 0
          826.867 6 0 833.533 6 0 840.2 6 0 846.867 6 0
          853.533 6 0 860.2 6 0 866.867 6 0 873.533 6 0
          746.867 9 0 753.533 9 0 760.2 9 0 766.867 9 0
          773.533 9 0 780.2 9 0 786.867 9 0 793.533 9 0
          800.2 9 0 806.867 9 0 813.533 9 0 820.2 9 0
          826.867 9 0 833.533 9 0 840.2 9 0 846.867 9 0
          853.533 9 0 860.2 9 0 866.867 9 0 873.533 9 0
          746.867 12 0 753.533 12 0 760.2 12 0 766.867 12 0
          773.533 12 0 780.2 12 0 786.867 12 0 793.533 12 0
          800.2 12 0 806.867 12 0 813.533 12 0 820.2 12 0
          826.867 12 0 833.533 12 0 840.2 12 0 846.867 12 0
          853.533 12 0 860.2 12 0 866.867 12 0 873.533 12 0
          746.867 15 0 753.533 15 0 760.2 15 0 766.867 15 0
          773.533 15 0 780.2 15 0 786.867 15 0 793.533 15 0
          800.2 15 0 806.867 15 0 813.533 15 0 820.2 15 0
          826.867 15 0 833.533 15 0 840.2 15 0 846.867 15 0
          853.533 15 0 860.2 15 0 866.867 15 0 873.533 15 0
          746.867 18 0 753.533 18 0 760.2 18 0 766.867 18 0
          773.533 18 0 780.2 18 0 786.867 18 0 793.533 18 0
          800.2 18 0 806.867 18 0 813.533 18 0 820.2 18 0
          826.867 18 0 833.533 18 0 840.2 18 0 846.867 18 0
          853.533 18 0 860.2 18 0 866.867 18 0 873.533 18 0
          746.867 21 0 753.533 21 0 760.2 21 0 766.867 21 0
          773.533 21 0 780.2 21 0 786.867 21 0 793.533 21 0
          800.2 21 0 806.867 21 0 813.533 21 0 820.2 21 0
          826.867 21 0 833.533 21 0 840.2 21 0 846.867 21 0
          853.533 21 0 860.2 21 0 866.867 21 0 873.533 21 0
          746.867 24 0 753.533 24 0 760.2 24 0 766.867 24 0
          773.533 24 0 780.2 24 0 786.867 24 0 793.533 24 0
          800.2 24 0 806.867 24 0 813.533 24 0 820.2 24 0
          826.867 24 0 833.533 24 0 840.2 24 0 846.867 24 0
          853.533 24 0 860.2 24 0 866.867 24 0 873.533 24 0
          746.867 27 0 753.533 27 0 760.2 27 0 766.867 27 0
          773.533 27 0 780.2 27 0 786.867 27 0 793.533 27 0
          800.2 27 0 806.867 27 0 813.533 27 0 820.2 27 0
          826.867 27 0 833.533 27 0 840.2 27 0 846.867 27 0
          853.533 27 0 860.2 27 0 866.867 27 0 873.533 27 0
          746.867 30 0 753.533 30 0 760.2 30 0 766.867 30 0
          773.533 30 0 780.2 30 0 786.867 30 0 793.533 30 0
          800.2 30 0 806.867 30 0 813.533 30 0 820.2 30 0
          826.867 30 0 833.533 30 0 840.2 30 0 846.867 30 0
          853.533 30 0 860.2 30 0 866.867 30 0 873.533 30 0
          746.867 33 0 753.533 33 0 760.2 33 0 766.867 33 0
          773.533 33 0 780.2 33 0 786.867 33 0 793.533 33 0
          800.2 33 0 806.867 33 0 813.533 33 0 820.2 33 0
          826.867 33 0 833.533 33 0 840.2 33 0 846.867 33 0
          853.533 33 0 860.2 33 0 866.867 33 0 873.533 33 0
          746.867 36 0 753.533 36 0 760.2 36 0 766.867 36 0
          773.533 36 0 780.2 36 0 786.867 36 0 793.533 36 0
          800.2 36 0 806.867 36 0 813.533 36 0 820.2 36 0
          826.867 36 0 833.533 36 0 840.2 36 0 846.867 36 0
          853.533 36 0 860.2 36 0 866.867 36 0 873.533 36 0
          746.867 39 0 753.533 39 0 760.2 39 0 766.867 39 0
          773.533 39 0 780.2 39 0 786.867 39 0 793.533 39 0
          800.2 39 0 806.867 39 0 813.533 39 0 820.2 39 0
          826.867 39 0 833.533 39 0 840.2 39 0 846.867 39 0
          853.533 39 0 860.2 39 0 866.867 39 0 873.533 39 0
          746.867 42 0 753.533 42 0 760.2 42 0 766.867 42 0
          773.533 42 0 780.2 42 0 786.867 42 0 793.533 42 0
          800.2 42 0 806.867 42 0 813.533 42 0 820.2 42 0
          826.867 42 0 833.533 42 0 840.2 42 0 846.867 42 0
          853.533 42 0 860.2 42 0 866.867 42 0 873.533 42 0
          746.867 45 0 753.533 45 0 760.2 45 0 766.867 45 0
          773.533 45 0 780.2 45 0 786.867 45 0 793.533 45 0
          800.2 45 0 806.867 45 0 813.533 45 0 820.2 45 0
          826.867 45 0 833.533 45 0 840.2 45 0 846.867 45 0
          853.533 45 0 860.2 45 0 866.867 45 0 873.533 45 0
          746.867 48 0 753.533 48 0 760.2 48 0 766.867 48 0
          773.533 48 0 780.2 48 0 786.867 48 0 793.533 48 0
          800.2 48 0 806.867 48 0 813.533 48 0 820.2 48 0
          826.867 48 0 833.533 48 0 840.2 48 0 846.867 48 0
          853.533 48 0 860.2 48 0 866.867 48 0 873.533 48 0
          746.867 51 0 753.533 51 0 760.2 51 0 766.867 51 0
          773.533 51 0 780.2 51 0 786.867 51 0 793.533 51 0
          800.2 51 0 806.867 51 0 813.533 51 0 820.2 51 0
          826.867 51 0 833.533 51 0 840.2 51 0 846.867 51 0
          853.533 51 0 860.2 51 0 866.867 51 0 873.533 51 0
          746.867 54 0 753.533 54 0 760.2 54 0 766.867 54 0
          773.533 54 0 780.2 54 0 786.867 54 0 793.533 54 0
          800.2 54 0 806.867 54 0 813.533 54 0 820.2 54 0
          826.867 54 0 833.533 54 0 840.2 54 0 846.867 54 0
          853.533 54 0 860.2 54 0 866.867 54 0 873.533 54 0
          746.867 57 0 753.533 57 0 760.2 57 0 766.867 57 0
          773.533 57 0 780.2 57 0 786.867 57 0 793.533 57 0
          800.2 57 0 806.867 57 0 813.533 57 0 820.2 57 0
          826.867 57 0 833.533 57 0 840.2 57 0 846.867 57 0
          853.533 57 0 860.2 57 0 866.867 57 0 873.533 57 0
          746.867 60 0 753.533 60 0 760.2 60 0 766.867 60 0
          773.533 60 0 780.2 60 0 786.867 60 0 793.533 60 0
          800.2 60 0 806.867 60 0 813.533 60 0 820.2 60 0
          826.867 60 0 833.533 60 0 840.2 60 0 846.867 60 0
          853.533 60 0 860.2 60 0 866.867 60 0 873.533 60 0
        </DataArray>
      </Points>
      <Cells>
        <DataArray type="Int32" Name="connectivity" NumberOfComponents="1" format="ascii">
          0 1 3 2 1 4 5 3 4 6 7 5
          6 8 9 7 8 10 11 9 10 12 13 11
          12 14 15 13 14 16 17 15 16 18 19 17
          18 20 21 19 20 22 23 21 22 24 25 23
          24 26 27 25 26 28 29 27 28 30 31 29
          30 32 33 31 32 34 35 33 34 36 37 35
          36 38 39 37 2 3 41 40 3 5 42 41
          5 7 43 42 7 9 44 43 9 11 45 44
          11 13 46 45 13 15 47 46 15 17 48 47
          17 19 49 48 19 21 50 49 21 23 51 50
          23 25 52 51 25 27 53 52 27 29 54 53
          29 31 55 54 31 33 56 55 33 35 57 56
          35 37 58 57 37 39 59 58 40 41 61 60
          41 42 62 61 42 43 63 62 43 44 64 63
          44 45 65 64 45 46 66 65 46 47 67 66
          47 48 68 67 48 49 69 68 49 50 70 69
          50 51 71 70 51 52 72 71 52 53 73 72
          53 54 74 73 54 55 75 74 55 56 76 75
          56 57 77 76 57 58 78 77 58 59 79 78
          60 61 81 80 61 62 82 81 62 63 83 82
          63 64 84 83 64 65 85 84 65 66 86 85
          66 67 87 86 67 68 88 87 68 69 89 88
          69 70 90 89 70 71 91 90 71 72 92 91
          72 73 93 92 73 74 94 93 74 75 95 94
          75 76 96 95 76 77 97 96 77 78 98 97
          78 79 99 98 80 81 101 100 81 82 102 101
          82 83 103 102 83 84 104 103 84 85 105 104
          85 86 106 105 86 87 107 106 87 88 108 107
          88 89 109 108 89 90 110 109 90 91 111 110
          91 92 112 111 92 93 113 112 93 94 114 113
          94 95 115 114 95 96 116 115 96 97 117 116
          97 98 118 117 98 99 119 118 100 101 121 120
          101 102 122 121 102 103 123 122 103 104 124 123
          104 105 125 124 105 106 126 125 106 107 127 126
          107 108 128 127 108 109 129 128 109 110 130 129
          110 111 131 130 111 112 132 131 112 113 133 132
          113 114 134 133 114 115 135 134 115 116 136 135
          116 117 137 136 117 118 138 137 118 119 139 138
          120 121 141 140 121 122 142 141 122 123 143 142
          123 124 144 143 124 125 145 144 125 126 146 145
          126 127 147 146 127 128 148 147 128 129 149 148
          129 130 150 149 130 131 151 150 131 132 152 151
          132 133 153 152 133 134 154 153 134 135 155 154
          135 136 156 155 136 137 157 156 137 138 158 157
          138 139 159 158 140 141 161 160 141 142 162 161
          142 143 163 162 143 144 164 163 144 145 165 164
          145 146 166 165 146 147 167 166 147 148 168 167
          148 149 169 168 149 150 170 169 150 151 171 170
          151 152 172 171 152 153 173 172 153 154 174 173
          154 155 175 174 155 156 176 175 156 157 177 176
          157 158 178 177 158 159 179 178 160 161 181 180
          161 162 182 181 162 163 183 182 163 164 184 183
          164 165 185 184 165 166 186 185 166 167 187 186
          167 168 188 187 168 169 189 188 169 170 190 189
          170 171 191 190 171 172 192 191 172 173 193 192
          173 174 194 193 174 175 195 194 175 176 196 195
          176 177 197 196 177 178 198 197 178 179 199 198
          180 181 201 200 181 182 202 201 182 183 203 202
          183 184 204 203 184 185 205 204 185 186 206 205
          186 187 207 206 187 188 208 207 188 189 209 208
          189 190 210 209 190 191 211 210 191 192 212 211
          192 193 213 212 193 194 214 213 194 195 215 214
          195 196 216 215 196 197 217 216 197 198 218 217
          198 199 219 218 200 201 221 220 201 202 222 221
          202 203 223 222 203 204 224 223 204 205 225 224
          205 206 226 225 206 207 227 226 207 208 228 227
          208 209 229 228 209 210 230 229 210 211 231 230
          211 212 232 231 212 213 233 232 213 214 234 233
          214 215 235 234 215 216 236 235 216 217 237 236
          217 218 238 237 218 219 239 238 220 221 241 240
          221 222 242 241 222 223 243 242 223 224 244 243
          224 225 245 244 225 226 246 245 226 227 247 246
          227 228 248 247 228 229 249 248 229 230 250 249
          230 231 251 250 231 232 252 251 232 233 253 252
          233 234 254 253 234 235 255 254 235 236 256 255
          236 237 257 256 237 238 258 257 238 239 259 258
          240 241 261 260 241 242 262 261 242 243 263 262
          243 244 264 263 244 245 265 264 245 246 266 265
          246 247 267 266 247 248 268 267 248 249 269 268
          249 250 270 269 250 251 271 270 251 252 272 271
          252 253 273 272 253 254 274 273 254 255 275 274
          255 256 276 275 256 257 277 276 257 258 278 277
          258 259 279 278 260 261 281 280 261 262 282 281
          262 263 283 282 263 264 284 283 264 265 285 284
          265 266 286 285 266 267 287 286 267 268 288 287
          268 269 289 288 269 270 290 289 270 271 291 290
          271 272 292 291 272 273 293 292 273 274 294 293
          274 275 295 294 275 276 296 295 276 277 297 296
          277 278 298 297 278 279 299 298 280 281 301 300
          281 282 302 301 282 283 303 302 283 284 304 303
          284 285 305 304 285 286 306 305 286 287 307 306
          287 288 308 307 288 289 309 308 289 290 310 309
          290 291 311 310 291 292 312 311 292 293 313 312
          293 294 314 313 294 295 315 314 295 296 316 315
          296 297 317 316 297 298 318 317 298 299 319 318
          300 301 321 320 301 302 322 321 302 303 323 322
          303 304 324 323 304 305 325 324 305 306 326 325
          306 307 327 326 307 308 328 327 308 309 329 328
          309 310 330 329 310 311 331 330 311 312 332 331
          312 313 333 332 313 314 334 333 314 315 335 334
          315 316 336 335 316 317 337 336 317 318 338 337
          318 319 339 338 320 321 341 340 321 322 342 341
          322 323 343 342 323 324 344 343 324 325 345 344
          325 326 346 345 326 327 347 346 327 328 348 347
          328 329 349 348 329 330 350 349 330 331 351 350
          331 332 352 351 332 333 353 352 333 334 354 353
          334 335 355 354 335 336 356 355 336 337 357 356
          337 338 358 357 338 339 359 358 340 341 361 360
          341 342 362 361 342 343 363 362 343 344 364 363
          344 345 365 364 345 346 366 365 346 347 367 366
          347 348 368 367 348 349 369 368 349 350 370 369
          350 351 371 370 351 352 372 371 352 353 373 372
          353 354 374 373 354 355 375 374 355 356 376 375
          356 357 377 376 357 358 378 377 358 359 379 378
          360 361 381 380 361 362 382 381 362 363 383 382
          363 364 384 383 364 365 385 384 365 366 386 385
          366 367 387 386 367 368 388 387 368 369 389 388
          369 370 390 389 370 371 391 390 371 372 392 391
          372 373 393 392 373 374 394 393 374 375 395 394
          375 376 396 395 376 377 397 396 377 378 398 397
          378 379 399 398 380 381 401 400 381 382 402 401
          382 383 403 402 383 384 404 403 384 385 405 404
          385 386 406 405 386 387 407 406 387 388 408 407
          388 389 409 408 389 390 410 409 390 391 411 410
          391 392 412 411 392 393 413 412 393 394 414 413
          394 395 415 414 395 396 416 415 396 397 417 416
          397 398 418 417 398 399 419 418
        </DataArray>
        <DataArray type="Int32" Name="offsets" NumberOfComponents="1" format="ascii">
          4 8 12 16 20 24 28 32 36 40 44 48
          52 56 60 64 68 72 76 80 84 88 92 96
          100 104 108 112 116 120 124 128 132 136 140 144
          148 152 156 160 164 168 172 176 180 184 188 192
          196 200 204 208 212 216 220 224 228 232 236 240
          244 248 252 256 260 264 268 272 276 280 284 288
          292 296 300 304 308 312 316 320 324 328 332 336
          340 344 348 352 356 360 364 368 372 376 380 384
          388 392 396 400 404 408 412 416 420 424 428 432
          436 440 444 448 452 456 460 464 468 472 476 480
          484 488 492 496 500 504 508 512 516 520 524 528
          532 536 540 544 548 552 556 560 564 568 572 576
          580 584 588 592 596 600 604 608 612 616 620 624
          628 632 636 640 644 648 652 656 660 664 668 672
          676 680 684 688 692 696 700 704 708 712 716 720
          724 728 732 736 740 744 748 752 756 760 764 768
          772 776 780 784 788 792 796 800 804 808 812 816
          820 824 828 832 836 840 844 848 852 856 860 864
          868 872 876 880 884 888 892 896 900 904 908 912
          916 920 924 928 932 936 940 944 948 952 956 960
          964 968 972 976 980 984 988 992 996 1000 1004 1008
          1012 1016 1020 1024 1028 1032 1036 1040 1044 1048 1052 1056
          1060 1064 1068 1072 1076 1080 1084 1088 1092 1096 1100 1104
          1108 1112 1116 1120 1124 1128 1132 1136 1140 1144 1148 1152
          1156 1160 1164 1168 1172 1176 1180 1184 1188 1192 1196 1200
          1204 1208 1212 1216 1220 1224 1228 1232 1236 1240 1244 1248
          1252 1256 1260 1264 1268 1272 1276 1280 1284 1288 1292 1296
          1300 1304 1308 1312 1316 1320 1324 1328 1332 1336 1340 1344
          1348 1352 1356 1360 1364 1368 1372 1376 1380 1384 1388 1392
          1396 1400 1404 1408 1412 1416 1420 1424 1428 1432 1436 1440
          1444 1448 1452 1456 1460 1464 1468 1472 1476 1480 1484 1488
          1492 1496 1500 1504 1508 1512 1516 1520
        </DataArray>
        <DataArray type="UInt8" Name="types" NumberOfComponents="1" format="ascii">
          9 9 9 9 9 9 9 9 9 9 9 9
          9 9 9 9 9 9 9 9 9 9 9 9
          9 9 9 9 9 9 9 9 9 9 9 9
          9 9 9 9 9 9 9 9 9 9 9 9
          9 9 9 9 9 9 9 9 9 9 9 9
          9 9 9 9 9 9 9 9 9 9 9 9
          9 9 9 9 9 9 9 9 9 9 9 9
          9 9 9 9 9 9 9 9 9 9 9 9
          9 9 9 9 9 9 9 9 9 9 9 9
          9 9 9 9 9 9 9 9 9 9 9 9
          9 9 9 9 9 9 9 9 9 9 9 9
          9 9 9 9 9 9 9 9 9 9 9 9
          9 9 9 9 9 9 9 9 9 9 9 9
          9 9 9 9 9 9 9 9 9 9 9 9
          9 9 9 9 9 9 9 9 9 9 9 9
          9 9 9 9 9 9 9 9 9 9 9 9
          9 9 9 9 9 9 9 9 9 9 9 9
          9 9 9 9 9 9 9 9 9 9 9 9
          9 9 9 9 9 9 9 9 9 9 9 9
          9 9 9 9 9 9 9 9 9 9 9 9
          9 9 9 9 9 9 9 9 9 9 9 9
          9 9 9 9 9 9 9 9 9 9 9 9
          9 9 9 9 9 9 9 9 9 9 9 9
          9 9 9 9 9 9 9 9 9 9 9 9
          9 9 9 9 9 9 9 9 9 9 9 9
          9 9 9 9 9 9 9 9 9 9 9 9
          9 9 9 9 9 9 9 9 9 9 9 9
          9 9 9 9 9 9 9 9 9 9 9 9
          9 9 9 9 9 9 9 9 9 9 9 9
          9 9 9 9 9 9 9 9 9 9 9 9
          9 9 9 9 9 9 9 9 9 9 9 9
          9 9 9 9 9 9 9 9
        </DataArray>
      </Cells>
    </Piece>
  </UnstructuredGrid>
</VTKFile>
