<?xml version="1.0"?>
<VTKFile type="UnstructuredGrid" version="0.1" byte_order="LittleEndian">
  <UnstructuredGrid>
    <Piece NumberOfCells="1000" NumberOfPoints="1071">
      <PointData Scalars="S_liq" Vectors="velocity_liq (m/s)">
        <DataArray type="Float32" Name="S_liq" NumberOfComponents="1" format="ascii">
          0.999999 0.999999 0.976533 0.976641 0.999999 0.976862 0.999999 0.977193 0.999999 0.977652 0.999999 0.978278
          0.999999 0.979151 0.999999 0.98044 0.999999 0.982453 0.999999 0.985768 0.999999 0.99162 0.999999 0.999248
          0.999999 0.999999 0.999999 0.999999 0.999999 0.999999 0.999999 0.999999 0.999999 0.999999 0.999999 0.999999
          0.999999 0.999999 0.999999 0.999999 0.999999 0.999999 0.999999 0.999999 0.999999 0.999999 0.999999 0.999999
          0.999999 0.999999 0.999999 0.999999 0.999999 0.999999 0.999999 0.999999 0.999999 0.999999 0.999999 0.999999
          0.999999 0.999999 0.999999 0.999999 0.999999 0.999999 0.999999 0.999999 0.999999 0.999999 0.999999 0.999999
          0.999999 0.999999 0.999999 0.999999 0.999999 0.999999 0.999999 0.999999 0.999999 0.999999 0.999999 0.999999
          0.999999 0.999999 0.999999 0.999999 0.999999 0.999999 0.999999 0.999999 0.999999 0.999999 0.999999 0.999999
          0.999999 0.999999 0.999999 0.999999 0.999999 0.999999 0.958481 0.958684 0.959095 0.959674 0.960403 0.961282
          0.962323 0.963544 0.964948 0.966448 0.967782 0.968585 0.969163 0.969804 0.970494 0.971225 0.971998 0.972816
          0.973693 0.974667 0.975826 0.977359 0.979616 0.98328 0.990177 0.999799 0.999999 0.999999 0.999999 0.999999
          0.999999 0.999999 0.999999 0.999999 0.999999 0.999999 0.999999 0.999999 0.999999 0.999999 0.999999 0.999999
          0.999999 0.999999 0.999999 0.999999 0.999999 0.999999 0.999999 0.999999 0.999999 0.927705 0.928437 0.929925
          0.931937 0.934298 0.936854 0.939494 0.942107 0.944616 0.946928 0.948963 0.950695 0.952271 0.953796 0.95527
          0.956689 0.958063 0.959408 0.960756 0.962151 0.963658 0.965349 0.967266 0.96933 0.971194 0.972242 0.973051
          0.973999 0.975094 0.97645 0.978255 0.980971 0.985277 0.996579 0.999995 0.999999 0.999999 0.999999 0.999999
          0.999999 0.999999 0.999999 0.999999 0.999999 0.999999 0.999999 0.999999 0.999999 0.999999 0.999999 0.999999
          0.813803 0.815972 0.82083 0.82803 0.837458 0.848932 0.861658 0.87449 0.886603 0.897337 0.906588 0.914477
          0.921204 0.926953 0.93185 0.936019 0.939589 0.94269 0.945443 0.947948 0.950284 0.952499 0.954593 0.956504
          0.95814 0.959486 0.960777 0.962143 0.96362 0.965268 0.967141 0.969254 0.971459 0.973377 0.97447 0.975839
          0.977647 0.980319 0.984527 0.994799 0.999984 0.999999 0.999999 0.999999 0.999999 0.999999 0.999999 0.999999
          0.999999 0.999999 0.999999 0.731923 0.732595 0.733892 0.735608 0.737722 0.740277 0.743416 0.748047 0.754187
          0.76251 0.773088 0.786071 0.801867 0.820492 0.841359 0.862617 0.881697 0.896981 0.908846 0.918036 0.925234
          0.930953 0.93556 0.939318 0.942435 0.945097 0.947494 0.949735 0.951882 0.953978 0.956039 0.958037 0.959902
          0.961576 0.963114 0.964837 0.96681 0.969067 0.971509 0.973811 0.975366 0.977378 0.980362 0.984959 0.997115
          0.999997 0.999999 0.999999 0.999999 0.999999 0.999999 0.718565 0.719282 0.720552 0.722121 0.723915 0.725901
          0.728056 0.730366 0.732819 0.735413 0.738154 0.741059 0.744183 0.747622 0.75154 0.756195 0.762379 0.772085
          0.785766 0.803604 0.825209 0.848771 0.871104 0.889645 0.903683 0.914244 0.922337 0.928673 0.933749 0.937921
          0.941439 0.944471 0.947128 0.949511 0.951738 0.953936 0.956131 0.958314 0.96043 0.962427 0.964351 0.966532
          0.969019 0.971698 0.974281 0.97636 0.979452 0.984174 0.996517 0.999995 0.999999 0.706805 0.7077 0.70922
          0.711071 0.71317 0.715474 0.71795 0.720568 0.723303 0.726131 0.729034 0.731993 0.734994 0.738025 0.741078
          0.74415 0.747249 0.750399 0.75365 0.757091 0.760893 0.765336 0.77081 0.778217 0.789846 0.806311 0.827357
          0.851005 0.873577 0.892235 0.906194 0.916503 0.924288 0.930331 0.93518 0.939216 0.942686 0.945749 0.948506
          0.951045 0.953471 0.955893 0.958316 0.960703 0.963037 0.965404 0.968117 0.971094 0.974113 0.976761 0.980848
          0.694274 0.69541 0.697255 0.699475 0.701972 0.704691 0.707591 0.710634 0.713788 0.717025 0.720321 0.723655
          0.72701 0.730371 0.733727 0.737069 0.740387 0.743678 0.746937 0.750161 0.753351 0.756511 0.759652 0.762798
          0.766007 0.769385 0.773146 0.77766 0.783429 0.791251 0.803615 0.821447 0.843598 0.866682 0.886947 0.902758
          0.91433 0.92291 0.929487 0.93471 0.939023 0.942735 0.946033 0.949039 0.951855 0.954586 0.957322 0.96005
          0.962768 0.965556 0.968717 0.680684 0.68215 0.684424 0.68712 0.690125 0.693367 0.696794 0.700357 0.704017
          0.70774 0.711501 0.715276 0.719048 0.722801 0.726524 0.730208 0.733844 0.737428 0.740955 0.744422 0.747826
          0.751165 0.754441 0.757654 0.760805 0.763899 0.766938 0.769932 0.772902 0.775887 0.77898 0.782372 0.786429
          0.791705 0.798928 0.809514 0.825866 0.847189 0.869756 0.8896 0.905109 0.916474 0.92488 0.931346 0.936535
          0.940886 0.944696 0.948144 0.951364 0.954471 0.957561 0.665718 0.667651 0.670503 0.673833 0.677499 0.681411
          0.685497 0.689699 0.693969 0.698272 0.702577 0.706861 0.711107 0.715301 0.719432 0.723493 0.727477 0.73138
          0.7352 0.738934 0.742581 0.746141 0.749615 0.753003 0.756307 0.759529 0.762669 0.76573 0.768714 0.771626
          0.774469 0.777254 0.779993 0.782713 0.785458 0.788324 0.791534 0.795522 0.800946 0.808659 0.82005 0.837294
          0.858947 0.880492 0.898485 0.912162 0.922141 0.929641 0.935556 0.94045 0.944695 0.6489 0.651544 0.655211
          0.659408 0.663958 0.668742 0.673664 0.678656 0.683665 0.688653 0.693591 0.698458 0.703238 0.707921 0.712499
          0.716967 0.721322 0.725561 0.729684 0.733691 0.737584 0.741362 0.745029 0.748587 0.752037 0.755382 0.758626
          0.761772 0.764824 0.767784 0.770656 0.773445 0.776155 0.778791 0.781359 0.783868 0.78633 0.788763 0.791205
          0.793724 0.796461 0.799742 0.804169 0.810586 0.820089 0.834349 0.854333 0.876246 0.895536 0.910549 0.921603
          0.62877 0.63249 0.637489 0.64314 0.649154 0.655285 0.661299 0.667267 0.673165 0.678959 0.684625 0.690149
          0.695522 0.700737 0.705793 0.710689 0.715425 0.720004 0.724426 0.728697 0.732818 0.736794 0.740628 0.744323
          0.747885 0.751317 0.754624 0.757812 0.760886 0.763851 0.766712 0.769475 0.772145 0.774728 0.77723 0.779657
          0.782014 0.784306 0.78654 0.788725 0.790872 0.792998 0.795137 0.797347 0.799748 0.802602 0.806457 0.812176
          0.820859 0.833986 0.852968 0.605869 0.611313 0.618108 0.625482 0.633081 0.640738 0.648379 0.655649 0.662603
          0.669328 0.675815 0.682062 0.688072 0.693847 0.699393 0.704716 0.709822 0.714718 0.71941 0.723904 0.728208
          0.732328 0.73627 0.74004 0.743645 0.747091 0.750388 0.753543 0.756564 0.759458 0.762234 0.764897 0.767456
          0.769918 0.772292 0.774583 0.776797 0.778941 0.781021 0.783041 0.785009 0.786929 0.788808 0.790651 0.792471
          0.794283 0.796116 0.798025 0.800117 0.80263 0.806072 0.57773 0.586318 0.596263 0.606485 0.616483 0.626078
          0.635242 0.64401 0.652216 0.659982 0.667359 0.674367 0.681025 0.68735 0.693359 0.699067 0.704487 0.709631
          0.714513 0.719144 0.723535 0.727697 0.73164 0.735374 0.738911 0.742261 0.745437 0.748452 0.751316 0.754039
          0.756632 0.759104 0.761465 0.763725 0.765891 0.767973 0.769976 0.771907 0.773773 0.775578 0.77733 0.779032
          0.78069 0.782308 0.78389 0.785441 0.786964 0.788465 0.789952 0.791439 0.792951 0.540831 0.556018 0.571821
          0.586353 0.599541 0.61158 0.622644 0.632877 0.642384 0.65124 0.659509 0.667244 0.674487 0.681277 0.687644
          0.693614 0.699211 0.704459 0.709376 0.713982 0.718296 0.722336 0.726117 0.729656 0.732972 0.736081 0.739001
          0.741749 0.744337 0.74678 0.749089 0.751277 0.753355 0.755333 0.757221 0.759026 0.760756 0.762417 0.764016
          0.765558 0.767049 0.768494 0.769896 0.77126 0.77259 0.773888 0.775157 0.776401 0.777621 0.77882 0.780001
          0.490517 0.521616 0.546427 0.566341 0.583275 0.598046 0.611143 0.622883 0.633635 0.643463 0.652466 0.660739
          0.668359 0.675385 0.681867 0.687849 0.693369 0.698464 0.703165 0.707504 0.711509 0.715207 0.718622 0.721781
          0.724707 0.727425 0.729956 0.732316 0.734523 0.736591 0.738535 0.740367 0.742099 0.743739 0.745299 0.746785
          0.748204 0.749563 0.750867 0.752122 0.753333 0.754503 0.755637 0.756738 0.75781 0.758855 0.759875 0.760874
          0.761852 0.762813 0.763757 0.468231 0.488916 0.52304 0.549041 0.569787 0.587036 0.601788 0.614789 0.626364
          0.636694 0.645966 0.654319 0.661861 0.668679 0.674848 0.680434 0.685495 0.690084 0.694247 0.698028 0.701466
          0.704595 0.707451 0.710064 0.712464 0.714675 0.716717 0.718609 0.720368 0.722008 0.723543 0.724984 0.726342
          0.727625 0.728841 0.729998 0.731101 0.732157 0.733169 0.734143 0.735083 0.735993 0.736875 0.737734 0.738571
          0.73939 0.740193 0.740981 0.741757 0.742522 0.743279 0.454091 0.4815 0.515764 0.541916 0.562939 0.580452
          0.595419 0.608352 0.619613 0.629474 0.638141 0.645779 0.652524 0.658491 0.663778 0.668472 0.672645 0.676363
          0.679682 0.682653 0.685317 0.687716 0.689886 0.691858 0.693657 0.695304 0.696817 0.698213 0.699507 0.700711
          0.701835 0.70289 0.703883 0.704821 0.705712 0.706561 0.707373 0.708152 0.708902 0.709628 0.710333 0.71102
          0.711691 0.71235 0.712998 0.713638 0.714273 0.714903 0.715531 0.716158 0.716787 0.452822 0.480734 0.513856
          0.538529 0.558026 0.573965 0.587246 0.598437 0.607937 0.616044 0.622989 0.628961 0.634112 0.63857 0.64244
[...]
      <CellData Scalars="process rank">
        <DataArray type="Float32" Name="process rank" NumberOfComponents="1" format="ascii">
          0 0 0 0 0 0 0 0 0 0 0 0
          0 0 0 0 0 0 0 0 0 0 0 0
          0 0 0 0 0 0 0 0 0 0 0 0
          0 0 0 0 0 0 0 0 0 0 0 0
          0 0 0 0 0 0 0 0 0 0 0 0
          0 0 0 0 0 0 0 0 0 0 0 0
          0 0 0 0 0 0 0 0 0 0 0 0
          0 0 0 0 0 0 0 0 0 0 0 0
          0 0 0 0 0 0 0 0 0 0 0 0
          0 0 0 0 0 0 0 0 0 0 0 0
          0 0 0 0 0 0 0 0 0 0 0 0
          0 0 0 0 0 0 0 0 0 0 0 0
          0 0 0 0 0 0 0 0 0 0 0 0
          0 0 0 0 0 0 0 0 0 0 0 0
          0 0 0 0 0 0 0 0 0 0 0 0
          0 0 0 0 0 0 0 0 0 0 0 0
          0 0 0 0 0 0 0 0 0 0 0 0
          0 0 0 0 0 0 0 0 0 0 0 0
          0 0 0 0 0 0 0 0 0 0 0 0
          0 0 0 0 0 0 0 0 0 0 0 0
          0 0 0 0 0 0 0 0 0 0 0 0
          0 0 0 0 0 0 0 0 0 0 0 0
          0 0 0 0 0 0 0 0 0 0 0 0
          0 0 0 0 0 0 0 0 0 0 0 0
          0 0 0 0 0 0 0 0 0 0 0 0
          0 0 0 0 0 0 0 0 0 0 0 0
          0 0 0 0 0 0 0 0 0 0 0 0
          0 0 0 0 0 0 0 0 0 0 0 0
          0 0 0 0 0 0 0 0 0 0 0 0
          0 0 0 0 0 0 0 0 0 0 0 0
          0 0 0 0 0 0 0 0 0 0 0 0
          0 0 0 0 0 0 0 0 0 0 0 0
          0 0 0 0 0 0 0 0 0 0 0 0
          0 0 0 0 0 0 0 0 0 0 0 0
          0 0 0 0 0 0 0 0 0 0 0 0
          0 0 0 0 0 0 0 0 0 0 0 0
          0 0 0 0 0 0 0 0 0 0 0 0
          0 0 0 0 0 0 0 0 0 0 0 0
          0 0 0 0 0 0 0 0 0 0 0 0
          0 0 0 0 0 0 0 0 0 0 0 0
          0 0 0 0 0 0 0 0 0 0 0 0
          0 0 0 0 0 0 0 0 0 0 0 0
          0 0 0 0 0 0 0 0 0 0 0 0
          0 0 0 0 0 0 0 0 0 0 0 0
          0 0 0 0 0 0 0 0 0 0 0 0
          0 0 0 0 0 0 0 0 0 0 0 0
          0 0 0 0 0 0 0 0 0 0 0 0
          0 0 0 0 0 0 0 0 0 0 0 0
          0 0 0 0 0 0 0 0 0 0 0 0
          0 0 0 0 0 0 0 0 0 0 0 0
          0 0 0 0 0 0 0 0 0 0 0 0
          0 0 0 0 0 0 0 0 0 0 0 0
          0 0 0 0 0 0 0 0 0 0 0 0
          0 0 0 0 0 0 0 0 0 0 0 0
          0 0 0 0 0 0 0 0 0 0 0 0
          0 0 0 0 0 0 0 0 0 0 0 0
          0 0 0 0 0 0 0 0 0 0 0 0
          0 0 0 0 0 0 0 0 0 0 0 0
          0 0 0 0 0 0 0 0 0 0 0 0
          0 0 0 0 0 0 0 0 0 0 0 0
          0 0 0 0 0 0 0 0 0 0 0 0
          0 0 0 0 0 0 0 0 0 0 0 0
          0 0 0 0 0 0 0 0 0 0 0 0
          0 0 0 0 0 0 0 0 0 0 0 0
          0 0 0 0 0 0 0 0 0 0 0 0
          0 0 0 0 0 0 0 0 0 0 0 0
          0 0 0 0 0 0 0 0 0 0 0 0
          0 0 0 0 0 0 0 0 0 0 0 0
          0 0 0 0 0 0 0 0 0 0 0 0
          0 0 0 0 0 0 0 0 0 0 0 0
          0 0 0 0 0 0 0 0 0 0 0 0
          0 0 0 0 0 0 0 0 0 0 0 0
          0 0 0 0 0 0 0 0 0 0 0 0
          0 0 0 0 0 0 0 0 0 0 0 0
          0 0 0 0 0 0 0 0 0 0 0 0
          0 0 0 0 0 0 0 0 0 0 0 0
          0 0 0 0 0 0 0 0 0 0 0 0
          0 0 0 0 0 0 0 0 0 0 0 0
          0 0 0 0 0 0 0 0 0 0 0 0
          0 0 0 0 0 0 0 0 0 0 0 0
          0 0 0 0 0 0 0 0 0 0 0 0
          0 0 0 0 0 0 0 0 0 0 0 0
          0 0 0 0 0 0 0 0 0 0 0 0
          0 0 0 0
        </DataArray>
      </CellData>
      <Points>
        <DataArray type="Float32" Name="Coordinates" NumberOfComponents="3" format="ascii">
          0.2 0 0 5.2 0 0 0.2 3 0 5.2 3 0
          10.2 0 0 10.2 3 0 15.2 0 0 15.2 3 0
          20.2 0 0 20.2 3 0 25.2 0 0 25.2 3 0
          30.2 0 0 30.2 3 0 35.2 0 0 35.2 3 0
          40.2 0 0 40.2 3 0 45.2 0 0 45.2 3 0
          50.2 0 0 50.2 3 0 55.2 0 0 55.2 3 0
          60.2 0 0 60.2 3 0 65.2 0 0 65.2 3 0
          70.2 0 0 70.2 3 0 75.2 0 0 75.2 3 0
          80.2 0 0 80.2 3 0 85.2 0 0 85.2 3 0
          90.2 0 0 90.2 3 0 95.2 0 0 95.2 3 0
          100.2 0 0 100.2 3 0 105.2 0 0 105.2 3 0
          110.2 0 0 110.2 3 0 115.2 0 0 115.2 3 0
          120.2 0 0 120.2 3 0 125.2 0 0 125.2 3 0
          130.2 0 0 130.2 3 0 135.2 0 0 135.2 3 0
          140.2 0 0 140.2 3 0 145.2 0 0 145.2 3 0
          150.2 0 0 150.2 3 0 155.2 0 0 155.2 3 0
          160.2 0 0 160.2 3 0 165.2 0 0 165.2 3 0
          170.2 0 0 170.2 3 0 175.2 0 0 175.2 3 0
          180.2 0 0 180.2 3 0 185.2 0 0 185.2 3 0
          190.2 0 0 190.2 3 0 195.2 0 0 195.2 3 0
          200.2 0 0 200.2 3 0 205.2 0 0 205.2 3 0
          210.2 0 0 210.2 3 0 215.2 0 0 215.2 3 0
          220.2 0 0 220.2 3 0 225.2 0 0 225.2 3 0
          230.2 0 0 230.2 3 0 235.2 0 0 235.2 3 0
          240.2 0 0 240.2 3 0 245.2 0 0 245.2 3 0
          250.2 0 0 250.2 3 0 0.2 6 0 5.2 6 0
          10.2 6 0 15.2 6 0 20.2 6 0 25.2 6 0
          30.2 6 0 35.2 6 0 40.2 6 0 45.2 6 0
          50.2 6 0 55.2 6 0 60.2 6 0 65.2 6 0
          70.2 6 0 75.2 6 0 80.2 6 0 85.2 6 0
          90.2 6 0 95.2 6 0 100.2 6 0 105.2 6 0
          110.2 6 0 115.2 6 0 120.2 6 0 125.2 6 0
          130.2 6 0 135.2 6 0 140.2 6 0 145.2 6 0
          150.2 6 0 155.2 6 0 160.2 6 0 165.2 6 0
          170.2 6 0 175.2 6 0 180.2 6 0 185.2 6 0
          190.2 6 0 195.2 6 0 200.2 6 0 205.2 6 0
          210.2 6 0 215.2 6 0 220.2 6 0 225.2 6 0
          230.2 6 0 235.2 6 0 240.2 6 0 245.2 6 0
          250.2 6 0 0.2 9 0 5.2 9 0 10.2 9 0
          15.2 9 0 20.2 9 0 25.2 9 0 30.2 9 0
          35.2 9 0 40.2 9 0 45.2 9 0 50.2 9 0
          55.2 9 0 60.2 9 0 65.2 9 0 70.2 9 0
          75.2 9 0 80.2 9 0 85.2 9 0 90.2 9 0
          95.2 9 0 100.2 9 0 105.2 9 0 110.2 9 0
          115.2 9 0 120.2 9 0 125.2 9 0 130.2 9 0
          135.2 9 0 140.2 9 0 145.2 9 0 150.2 9 0
          155.2 9 0 160.2 9 0 165.2 9 0 170.2 9 0
          175.2 9 0 180.2 9 0 185.2 9 0 190.2 9 0
          195.2 9 0 200.2 9 0 205.2 9 0 210.2 9 0
          215.2 9 0 220.2 9 0 225.2 9 0 230.2 9 0
          235.2 9 0 240.2 9 0 245.2 9 0 250.2 9 0
          0.2 12 0 5.2 12 0 10.2 12 0 15.2 12 0
          20.2 12 0 25.2 12 0 30.2 12 0 35.2 12 0
          40.2 12 0 45.2 12 0 50.2 12 0 55.2 12 0
          60.2 12 0 65.2 12 0 70.2 12 0 75.2 12 0
          80.2 12 0 85.2 12 0 90.2 12 0 95.2 12 0
          100.2 12 0 105.2 12 0 110.2 12 0 115.2 12 0
          120.2 12 0 125.2 12 0 130.2 12 0 135.2 12 0
          140.2 12 0 145.2 12 0 150.2 12 0 155.2 12 0
          160.2 12 0 165.2 12 0 170.2 12 0 175.2 12 0
          180.2 12 0 185.2 12 0 190.2 12 0 195.2 12 0
          200.2 12 0 205.2 12 0 210.2 12 0 215.2 12 0
          220.2 12 0 225.2 12 0 230.2 12 0 235.2 12 0
          240.2 12 0 245.2 12 0 250.2 12 0 0.2 15 0
          5.2 15 0 10.2 15 0 15.2 15 0 20.2 15 0
          25.2 15 0 30.2 15 0 35.2 15 0 40.2 15 0
          45.2 15 0 50.2 15 0 55.2 15 0 60.2 15 0
          65.2 15 0 70.2 15 0 75.2 15 0 80.2 15 0
          85.2 15 0 90.2 15 0 95.2 15 0 100.2 15 0
          105.2 15 0 110.2 15 0 115.2 15 0 120.2 15 0
          125.2 15 0 130.2 15 0 135.2 15 0 140.2 15 0
          145.2 15 0 150.2 15 0 155.2 15 0 160.2 15 0
          165.2 15 0 170.2 15 0 175.2 15 0 180.2 15 0
          185.2 15 0 190.2 15 0 195.2 15 0 200.2 15 0
          205.2 15 0 210.2 15 0 215.2 15 0 220.2 15 0
          225.2 15 0 230.2 15 0 235.2 15 0 240.2 15 0
          245.2 15 0 250.2 15 0 0.2 18 0 5.2 18 0
          10.2 18 0 15.2 18 0 20.2 18 0 25.2 18 0
          30.2 18 0 35.2 18 0 40.2 18 0 45.2 18 0
          50.2 18 0 55.2 18 0 60.2 18 0 65.2 18 0
          70.2 18 0 75.2 18 0 80.2 18 0 85.2 18 0
          90.2 18 0 95.2 18 0 100.2 18 0 105.2 18 0
          110.2 18 0 115.2 18 0 120.2 18 0 125.2 18 0
          130.2 18 0 135.2 18 0 140.2 18 0 145.2 18 0
          150.2 18 0 155.2 18 0 160.2 18 0 165.2 18 0
          170.2 18 0 175.2 18 0 180.2 18 0 185.2 18 0
          190.2 18 0 195.2 18 0 200.2 18 0 205.2 18 0
          210.2 18 0 215.2 18 0 220.2 18 0 225.2 18 0
          230.2 18 0 235.2 18 0 240.2 18 0 245.2 18 0
          250.2 18 0 0.2 21 0 5.2 21 0 10.2 21 0
          15.2 21 0 20.2 21 0 25.2 21 0 30.2 21 0
          35.2 21 0 40.2 21 0 45.2 21 0 50.2 21 0
          55.2 21 0 60.2 21 0 65.2 21 0 70.2 21 0
          75.2 21 0 80.2 21 0 85.2 21 0 90.2 21 0
          95.2 21 0 100.2 21 0 105.2 21 0 110.2 21 0
          115.2 21 0 120.2 21 0 125.2 21 0 130.2 21 0
          135.2 21 0 140.2 21 0 145.2 21 0 150.2 21 0
          155.2 21 0 160.2 21 0 165.2 21 0 170.2 21 0
          175.2 21 0 180.2 21 0 185.2 21 0 190.2 21 0
          195.2 21 0 200.2 21 0 205.2 21 0 210.2 21 0
          215.2 21 0 220.2 21 0 225.2 21 0 230.2 21 0
          235.2 21 0 240.2 21 0 245.2 21 0 250.2 21 0
          0.2 24 0 5.2 24 0 10.2 24 0 15.2 24 0
          20.2 24 0 25.2 24 0 30.2 24 0 35.2 24 0
          40.2 24 0 45.2 24 0 50.2 24 0 55.2 24 0
          60.2 24 0 65.2 24 0 70.2 24 0 75.2 24 0
          80.2 24 0 85.2 24 0 90.2 24 0 95.2 24 0
          100.2 24 0 105.2 24 0 110.2 24 0 115.2 24 0
          120.2 24 0 125.2 24 0 130.2 24 0 135.2 24 0
          140.2 24 0 145.2 24 0 150.2 24 0 155.2 24 0
          160.2 24 0 165.2 24 0 170.2 24 0 175.2 24 0
          180.2 24 0 185.2 24 0 190.2 24 0 195.2 24 0
          200.2 24 0 205.2 24 0 210.2 24 0 215.2 24 0
          220.2 24 0 225.2 24 0 230.2 24 0 235.2 24 0
          240.2 24 0 245.2 24 0 250.2 24 0 0.2 27 0
          5.2 27 0 10.2 27 0 15.2 27 0 20.2 27 0
          25.2 27 0 30.2 27 0 35.2 27 0 40.2 27 0
          45.2 27 0 50.2 27 0 55.2 27 0 60.2 27 0
          65.2 27 0 70.2 27 0 75.2 27 0 80.2 27 0
          85.2 27 0 90.2 27 0 95.2 27 0 100.2 27 0
          105.2 27 0 110.2 27 0 115.2 27 0 120.2 27 0
          125.2 27 0 130.2 27 0 135.2 27 0 140.2 27 0
          145.2 27 0 150.2 27 0 155.2 27 0 160.2 27 0
          165.2 27 0 170.2 27 0 175.2 27 0 180.2 27 0
          185.2 27 0 190.2 27 0 195.2 27 0 200.2 27 0
          205.2 27 0 210.2 27 0 215.2 27 0 220.2 27 0
          225.2 27 0 230.2 27 0 235.2 27 0 240.2 27 0
          245.2 27 0 250.2 27 0 0.2 30 0 5.2 30 0
          10.2 30 0 15.2 30 0 20.2 30 0 25.2 30 0
          30.2 30 0 35.2 30 0 40.2 30 0 45.2 30 0
          50.2 30 0 55.2 30 0 60.2 30 0 65.2 30 0
          70.2 30 0 75.2 30 0 80.2 30 0 85.2 30 0
          90.2 30 0 95.2 30 0 100.2 30 0 105.2 30 0
          110.2 30 0 115.2 30 0 120.2 30 0 125.2 30 0
          130.2 30 0 135.2 30 0 140.2 30 0 145.2 30 0
          150.2 30 0 155.2 30 0 160.2 30 0 165.2 30 0
          170.2 30 0 175.2 30 0 180.2 30 0 185.2 30 0
          190.2 30 0 195.2 30 0 200.2 30 0 205.2 30 0
          210.2 30 0 215.2 30 0 220.2 30 0 225.2 30 0
          230.2 30 0 235.2 30 0 240.2 30 0 245.2 30 0
          250.2 30 0 0.2 33 0 5.2 33 0 10.2 33 0
          15.2 33 0 20.2 33 0 25.2 33 0 30.2 33 0
          35.2 33 0 40.2 33 0 45.2 33 0 50.2 33 0
          55.2 33 0 60.2 33 0 65.2 33 0 70.2 33 0
          75.2 33 0 80.2 33 0 85.2 33 0 90.2 33 0
          95.2 33 0 100.2 33 0 105.2 33 0 110.2 33 0
          115.2 33 0 120.2 33 0 125.2 33 0 130.2 33 0
          135.2 33 0 140.2 33 0 145.2 33 0 150.2 33 0
          155.2 33 0 160.2 33 0 165.2 33 0 170.2 33 0
          175.2 33 0 180.2 33 0 185.2 33 0 190.2 33 0
          195.2 33 0 200.2 33 0 205.2 33 0 210.2 33 0
          215.2 33 0 220.2 33 0 225.2 33 0 230.2 33 0
          235.2 33 0 240.2 33 0 245.2 33 0 250.2 33 0
          0.2 36 0 5.2 36 0 10.2 36 0 15.2 36 0
          20.2 36 0 25.2 36 0 30.2 36 0 35.2 36 0
          40.2 36 0 45.2 36 0 50.2 36 0 55.2 36 0
          60.2 36 0 65.2 36 0 70.2 36 0 75.2 36 0
          80.2 36 0 85.2 36 0 90.2 36 0 95.2 36 0
          100.2 36 0 105.2 36 0 110.2 36 0 115.2 36 0
          120.2 36 0 125.2 36 0 130.2 36 0 135.2 36 0
          140.2 36 0 145.2 36 0 150.2 36 0 155.2 36 0
          160.2 36 0 165.2 36 0 170.2 36 0 175.2 36 0
          180.2 36 0 185.2 36 0 190.2 36 0 195.2 36 0
          200.2 36 0 205.2 36 0 210.2 36 0 215.2 36 0
          220.2 36 0 225.2 36 0 230.2 36 0 235.2 36 0
          240.2 36 0 245.2 36 0 250.2 36 0 0.2 39 0
          5.2 39 0 10.2 39 0 15.2 39 0 20.2 39 0
          25.2 39 0 30.2 39 0 35.2 39 0 40.2 39 0
          45.2 39 0 50.2 39 0 55.2 39 0 60.2 39 0
          65.2 39 0 70.2 39 0 75.2 39 0 80.2 39 0
          85.2 39 0 90.2 39 0 95.2 39 0 100.2 39 0
          105.2 39 0 110.2 39 0 115.2 39 0 120.2 39 0
          125.2 39 0 130.2 39 0 135.2 39 0 140.2 39 0
          145.2 39 0 150.2 39 0 155.2 39 0 160.2 39 0
          165.2 39 0 170.2 39 0 175.2 39 0 180.2 39 0
          185.2 39 0 190.2 39 0 195.2 39 0 200.2 39 0
          205.2 39 0 210.2 39 0 215.2 39 0 220.2 39 0
          225.2 39 0 230.2 39 0 235.2 39 0 240.2 39 0
          245.2 39 0 250.2 39 0 0.2 42 0 5.2 42 0
          10.2 42 0 15.2 42 0 20.2 42 0 25.2 42 0
          30.2 42 0 35.2 42 0 40.2 42 0 45.2 42 0
          50.2 42 0 55.2 42 0 60.2 42 0 65.2 42 0
          70.2 42 0 75.2 42 0 80.2 42 0 85.2 42 0
          90.2 42 0 95.2 42 0 100.2 42 0 105.2 42 0
          110.2 42 0 115.2 42 0 120.2 42 0 125.2 42 0
          130.2 42 0 135.2 42 0 140.2 42 0 145.2 42 0
          150.2 42 0 155.2 42 0 160.2 42 0 165.2 42 0
          170.2 42 0 175.2 42 0 180.2 42 0 185.2 42 0
          190.2 42 0 195.2 42 0 200.2 42 0 205.2 42 0
          210.2 42 0 215.2 42 0 220.2 42 0 225.2 42 0
          230.2 42 0 235.2 42 0 240.2 42 0 245.2 42 0
          250.2 42 0 0.2 45 0 5.2 45 0 10.2 45 0
          15.2 45 0 20.2 45 0 25.2 45 0 30.2 45 0
          35.2 45 0 40.2 45 0 45.2 45 0 50.2 45 0
          55.2 45 0 60.2 45 0 65.2 45 0 70.2 45 0
          75.2 45 0 80.2 45 0 85.2 45 0 90.2 45 0
          95.2 45 0 100.2 45 0 105.2 45 0 110.2 45 0
          115.2 45 0 120.2 45 0 125.2 45 0 130.2 45 0
          135.2 45 0 140.2 45 0 145.2 45 0 150.2 45 0
          155.2 45 0 160.2 45 0 165.2 45 0 170.2 45 0
          175.2 45 0 180.2 45 0 185.2 45 0 190.2 45 0
          195.2 45 0 200.2 45 0 205.2 45 0 210.2 45 0
          215.2 45 0 220.2 45 0 225.2 45 0 230.2 45 0
          235.2 45 0 240.2 45 0 245.2 45 0 250.2 45 0
          0.2 48 0 5.2 48 0 10.2 48 0 15.2 48 0
          20.2 48 0 25.2 48 0 30.2 48 0 35.2 48 0
          40.2 48 0 45.2 48 0 50.2 48 0 55.2 48 0
          60.2 48 0 65.2 48 0 70.2 48 0 75.2 48 0
          80.2 48 0 85.2 48 0 90.2 48 0 95.2 48 0
          100.2 48 0 105.2 48 0 110.2 48 0 115.2 48 0
          120.2 48 0 125.2 48 0 130.2 48 0 135.2 48 0
          140.2 48 0 145.2 48 0 150.2 48 0 155.2 48 0
          160.2 48 0 165.2 48 0 170.2 48 0 175.2 48 0
          180.2 48 0 185.2 48 0 190.2 48 0 195.2 48 0
          200.2 48 0 205.2 48 0 210.2 48 0 215.2 48 0
          220.2 48 0 225.2 48 0 230.2 48 0 235.2 48 0
          240.2 48 0 245.2 48 0 250.2 48 0 0.2 51 0
          5.2 51 0 10.2 51 0 15.2 51 0 20.2 51 0
          25.2 51 0 30.2 51 0 35.2 51 0 40.2 51 0
          45.2 51 0 50.2 51 0 55.2 51 0 60.2 51 0
          65.2 51 0 70.2 51 0 75.2 51 0 80.2 51 0
          85.2 51 0 90.2 51 0 95.2 51 0 100.2 51 0
          105.2 51 0 110.2 51 0 115.2 51 0 120.2 51 0
          125.2 51 0 130.2 51 0 135.2 51 0 140.2 51 0
          145.2 51 0 150.2 51 0 155.2 51 0 160.2 51 0
          165.2 51 0 170.2 51 0 175.2 51 0 180.2 51 0
          185.2 51 0 190.2 51 0 195.2 51 0 200.2 51 0
          205.2 51 0 210.2 51 0 215.2 51 0 220.2 51 0
          225.2 51 0 230.2 51 0 235.2 51 0 240.2 51 0
          245.2 51 0 250.2 51 0 0.2 54 0 5.2 54 0
          10.2 54 0 15.2 54 0 20.2 54 0 25.2 54 0
          30.2 54 0 35.2 54 0 40.2 54 0 45.2 54 0
          50.2 54 0 55.2 54 0 60.2 54 0 65.2 54 0
          70.2 54 0 75.2 54 0 80.2 54 0 85.2 54 0
          90.2 54 0 95.2 54 0 100.2 54 0 105.2 54 0
          110.2 54 0 115.2 54 0 120.2 54 0 125.2 54 0
          130.2 54 0 135.2 54 0 140.2 54 0 145.2 54 0
          150.2 54 0 155.2 54 0 160.2 54 0 165.2 54 0
          170.2 54 0 175.2 54 0 180.2 54 0 185.2 54 0
          190.2 54 0 195.2 54 0 200.2 54 0 205.2 54 0
          210.2 54 0 215.2 54 0 220.2 54 0 225.2 54 0
          230.2 54 0 235.2 54 0 240.2 54 0 245.2 54 0
          250.2 54 0 0.2 57 0 5.2 57 0 10.2 57 0
          15.2 57 0 20.2 57 0 25.2 57 0 30.2 57 0
          35.2 57 0 40.2 57 0 45.2 57 0 50.2 57 0
          55.2 57 0 60.2 57 0 65.2 57 0 70.2 57 0
          75.2 57 0 80.2 57 0 85.2 57 0 90.2 57 0
          95.2 57 0 100.2 57 0 105.2 57 0 110.2 57 0
          115.2 57 0 120.2 57 0 125.2 57 0 130.2 57 0
          135.2 57 0 140.2 57 0 145.2 57 0 150.2 57 0
          155.2 57 0 160.2 57 0 165.2 57 0 170.2 57 0
          175.2 57 0 180.2 57 0 185.2 57 0 190.2 57 0
          195.2 57 0 200.2 57 0 205.2 57 0 210.2 57 0
          215.2 57 0 220.2 57 0 225.2 57 0 230.2 57 0
          235.2 57 0 240.2 57 0 245.2 57 0 250.2 57 0
          0.2 60 0 5.2 60 0 10.2 60 0 15.2 60 0
          20.2 60 0 25.2 60 0 30.2 60 0 35.2 60 0
          40.2 60 0 45.2 60 0 50.2 60 0 55.2 60 0
          60.2 60 0 65.2 60 0 70.2 60 0 75.2 60 0
          80.2 60 0 85.2 60 0 90.2 60 0 95.2 60 0
          100.2 60 0 105.2 60 0 110.2 60 0 115.2 60 0
          120.2 60 0 125.2 60 0 130.2 60 0 135.2 60 0
          140.2 60 0 145.2 60 0 150.2 60 0 155.2 60 0
          160.2 60 0 165.2 60 0 170.2 60 0 175.2 60 0
          180.2 60 0 185.2 60 0 190.2 60 0 195.2 60 0
          200.2 60 0 205.2 60 0 210.2 60 0 215.2 60 0
          220.2 60 0 225.2 60 0 230.2 60 0 235.2 60 0
          240.2 60 0 245.2 60 0 250.2 60 0
        </DataArray>
      </Points>
      <Cells>
        <DataArray type="Int32" Name="connectivity" NumberOfComponents="1" format="ascii">
          0 1 3 2 1 4 5 3 4 6 7 5
          6 8 9 7 8 10 11 9 10 12 13 11
          12 14 15 13 14 16 17 15 16 18 19 17
          18 20 21 19 20 22 23 21 22 24 25 23
          24 26 27 25 26 28 29 27 28 30 31 29
          30 32 33 31 32 34 35 33 34 36 37 35
          36 38 39 37 38 40 41 39 40 42 43 41
          42 44 45 43 44 46 47 45 46 48 49 47
          48 50 51 49 50 52 53 51 52 54 55 53
          54 56 57 55 56 58 59 57 58 60 61 59
          60 62 63 61 62 64 65 63 64 66 67 65
          66 68 69 67 68 70 71 69 70 72 73 71
          72 74 75 73 74 76 77 75 76 78 79 77
          78 80 81 79 80 82 83 81 82 84 85 83
          84 86 87 85 86 88 89 87 88 90 91 89
          90 92 93 91 92 94 95 93 94 96 97 95
          96 98 99 97 98 100 101 99 2 3 103 102
          3 5 104 103 5 7 105 104 7 9 106 105
          9 11 107 106 11 13 108 107 13 15 109 108
          15 17 110 109 17 19 111 110 19 21 112 111
          21 23 113 112 23 25 114 113 25 27 115 114
          27 29 116 115 29 31 117 116 31 33 118 117
          33 35 119 118 35 37 120 119 37 39 121 120
          39 41 122 121 41 43 123 122 43 45 124 123
          45 47 125 124 47 49 126 125 49 51 127 126
          51 53 128 127 53 55 129 128 55 57 130 129
          57 59 131 130 59 61 132 131 61 63 133 132
          63 65 134 133 65 67 135 134 67 69 136 135
          69 71 137 136 71 73 138 137 73 75 139 138
          75 77 140 139 77 79 141 140 79 81 142 141
          81 83 143 142 83 85 144 143 85 87 145 144
          87 89 146 145 89 91 147 146 91 93 148 147
          93 95 149 148 95 97 150 149 97 99 151 150
          99 101 152 151 102 103 154 153 103 104 155 154
          104 105 156 155 105 106 157 156 106 107 158 157
          107 108 159 158 108 109 160 159 109 110 161 160
          110 111 162 161 111 112 163 162 112 113 164 163
          113 114 165 164 114 115 166 165 115 116 167 166
          116 117 168 167 117 118 169 168 118 119 170 169
          119 120 171 170 120 121 172 171 121 122 173 172
          122 123 174 173 123 124 175 174 124 125 176 175
          125 126 177 176 126 127 178 177 127 128 179 178
          128 129 180 179 129 130 181 180 130 131 182 181
          131 132 183 182 132 133 184 183 133 134 185 184
          134 135 186 185 135 136 187 186 136 137 188 187
          137 138 189 188 138 139 190 189 139 140 191 190
          140 141 192 191 141 142 193 192 142 143 194 193
          143 144 195 194 144 145 196 195 145 146 197 196
          146 147 198 197 147 148 199 198 148 149 200 199
          149 150 201 200 150 151 202 201 151 152 203 202
          153 154 205 204 154 155 206 205 155 156 207 206
          156 157 208 207 157 158 209 208 158 159 210 209
          159 160 211 210 160 161 212 211 161 162 213 212
          162 163 214 213 163 164 215 214 164 165 216 215
          165 166 217 216 166 167 218 217 167 168 219 218
          168 169 220 219 169 170 221 220 170 171 222 221