<?xml version="1.0"?>
<VTKFile type="UnstructuredGrid" version="0.1" byte_order="LittleEndian">
  <UnstructuredGrid>
    <Piece NumberOfCells="1000" NumberOfPoints="1071">
      <PointData Scalars="S_liq" Vectors="velocity_liq (m/s)">
        <DataArray type="Float32" Name="S_liq" NumberOfComponents="1" format="ascii">
          0.999999 0.999999 0.999999 0.999999 0.999999 0.999999 0.999999 0.999999 0.999999 0.999999 0.999999 0.999999
          0.999999 0.999999 0.999999 0.999999 0.999999 0.999999 0.999999 0.999999 0.999999 0.999999 0.999999 0.999999
          0.999999 0.999999 0.999999 0.999999 0.999999 0.999999 0.999999 0.999999 0.999999 0.999999 0.999999 0.999999
          0.999999 0.999999 0.999999 0.999999 0.999999 0.999999 0.999999 0.999999 0.999999 0.999999 0.999999 0.999999
          0.999999 0.999999 0.999999 0.999999 0.999999 0.999999 0.999999 0.999999 0.999999 0.999999 0.999999 0.999999
          0.999999 0.999999 0.999999 0.999999 0.999999 0.999999 0.999999 0.999999 0.999999 0.999999 0.999999 0.999999
          0.999999 0.999999 0.999999 0.999999 0.999999 0.999999 0.999999 0.999999 0.999999 0.999999 0.999999 0.999999
          0.999999 0.999999 0.999999 0.999999 0.999999 0.999999 0.999999 0.999999 0.999999 0.999999 0.999999 0.999999
          0.999999 0.999999 0.999999 0.999999 0.999999 0.999999 0.999999 0.999999 0.999999 0.999999 0.999999 0.999999
          0.999999 0.999999 0.999999 0.999999 0.999999 0.999999 0.999999 0.999999 0.999999 0.999999 0.999999 0.999999
          0.999999 0.999999 0.999999 0.999999 0.999999 0.999999 0.999999 0.999999 0.999999 0.999999 0.999999 0.999999
          0.999999 0.999999 0.999999 0.999999 0.999999 0.999999 0.999999 0.999999 0.999999 0.999999 0.999999 0.999999
          0.999999 0.999999 0.999999 0.999999 0.999999 0.999999 0.999999 0.999999 0.999999 0.999999 0.999999 0.999999
          0.999999 0.999999 0.999999 0.999999 0.999999 0.999999 0.999999 0.999999 0.999999 0.999999 0.999999 0.999999
          0.999999 0.999999 0.999999 0.999999 0.999999 0.999999 0.999999 0.999999 0.999999 0.999999 0.999999 0.999999
          0.999999 0.999999 0.999999 0.999999 0.999999 0.999999 0.999999 0.999999 0.999999 0.999999 0.999999 0.999999
          0.999999 0.999999 0.999999 0.999999 0.999999 0.999999 0.999999 0.999999 0.999999 0.999999 0.999999 0.999999
          0.999999 0.999999 0.999999 0.999999 0.999999 0.999999 0.999999 0.999999 0.999999 0.999999 0.999999 0.999999
          0.999999 0.999999 0.999999 0.999999 0.999999 0.999999 0.999999 0.999999 0.999999 0.999999 0.999999 0.999999
          0.999999 0.999999 0.999999 0.999999 0.999999 0.999999 0.999999 0.999999 0.999999 0.999999 0.999999 0.999999
          0.999999 0.999999 0.999999 0.999999 0.999999 0.999999 0.999999 0.999999 0.999999 0.999999 0.999999 0.999999
          0.999999 0.999999 0.999999 0.999999 0.999999 0.999999 0.999999 0.999999 0.999999 0.999999 0.999999 0.999999
          0.999999 0.999999 0.999999 0.999999 0.999999 0.999999 0.999999 0.999999 0.999999 0.999999 0.999999 0.999999
          0.999999 0.999999 0.999999 0.999999 0.999999 0.999999 0.999999 0.999999 0.999999 0.999999 0.999999 0.999999
          0.999999 0.999999 0.999999 0.999999 0.999999 0.999999 0.999999 0.999999 0.999999 0.999999 0.999999 0.999999
          0.999999 0.999999 0.999999 0.999999 0.999999 0.999999 0.999999 0.999999 0.999999 0.999999 0.999999 0.999999
          0.999999 0.999999 0.999999 0.999999 0.999999 0.999999 0.999999 0.999999 0.999999 0.999999 0.999999 0.999999
          0.999999 0.999999 0.999999 0.999999 0.999999 0.999999 0.999999 0.999999 0.999999 0.999999 0.999999 0.999999
          0.999999 0.999999 0.999999 0.999999 0.999999 0.999999 0.999999 0.999999 0.999999 0.999999 0.999999 0.999999
          0.999999 0.999999 0.999999 0.999999 0.999999 0.999999 0.999999 0.999999 0.999999 0.95811 0.997324 0.999998
          0.999999 0.999999 0.999999 0.999999 0.999999 0.999999 0.999999 0.999999 0.999999 0.999999 0.999999 0.999999
          0.999999 0.999999 0.999999 0.999999 0.999999 0.999999 0.999999 0.999999 0.999999 0.999999 0.999999 0.999999
          0.999999 0.999999 0.999999 0.999999 0.999999 0.999999 0.999999 0.999999 0.999999 0.999999 0.999999 0.999999
          0.999999 0.999999 0.999999 0.999999 0.999999 0.999999 0.999999 0.999999 0.999999 0.999999 0.999999 0.999999
          0.87036 0.887524 0.911938 0.957091 0.997324 0.999998 0.999999 0.999999 0.999999 0.999999 0.999999 0.999999
          0.999999 0.999999 0.999999 0.999999 0.999999 0.999999 0.999999 0.999999 0.999999 0.999999 0.999999 0.999999
          0.999999 0.999999 0.999999 0.999999 0.999999 0.999999 0.999999 0.999999 0.999999 0.999999 0.999999 0.999999
          0.999999 0.999999 0.999999 0.999999 0.999999 0.999999 0.999999 0.999999 0.999999 0.999999 0.999999 0.999999
          0.999999 0.999999 0.999999 0.841486 0.848572 0.858626 0.872718 0.891118 0.920684 0.974615 0.999537 0.999999
          0.999999 0.999999 0.999999 0.999999 0.999999 0.999999 0.999999 0.999999 0.999999 0.999999 0.999999 0.999999
          0.999999 0.999999 0.999999 0.999999 0.999999 0.999999 0.999999 0.999999 0.999999 0.999999 0.999999 0.999999
          0.999999 0.999999 0.999999 0.999999 0.999999 0.999999 0.999999 0.999999 0.999999 0.999999 0.999999 0.999999
          0.999999 0.999999 0.999999 0.999999 0.999999 0.999999 0.832143 0.835713 0.840066 0.845689 0.853412 0.864634
          0.880202 0.903396 0.948158 0.995344 0.999995 0.999999 0.999999 0.999999 0.999999 0.999999 0.999999 0.999999
          0.999999 0.999999 0.999999 0.999999 0.999999 0.999999 0.999999 0.999999 0.999999 0.999999 0.999999 0.999999
          0.999999 0.999999 0.999999 0.999999 0.999999 0.999999 0.999999 0.999999 0.999999 0.999999 0.999999 0.999999
          0.999999 0.999999 0.999999 0.999999 0.999999 0.999999 0.999999 0.999999 0.999999 0.827386 0.830053 0.832952
          0.836224 0.840098 0.844974 0.851506 0.860885 0.874641 0.894818 0.93321 0.988581 0.999955 0.999999 0.999999
          0.999999 0.999999 0.999999 0.999999 0.999999 0.999999 0.999999 0.999999 0.999999 0.999999 0.999999 0.999999
          0.999999 0.999999 0.999999 0.999999 0.999999 0.999999 0.999999 0.999999 0.999999 0.999999 0.999999 0.999999
          0.999999 0.999999 0.999999 0.999999 0.999999 0.999999 0.999999 0.999999 0.999999 0.999999 0.999999 0.999999
          0.823729 0.826089 0.828532 0.831104 0.833881 0.83698 0.840594 0.845058 0.850953 0.859319 0.871783 0.890506
          0.926288 0.983786 0.999877 0.999999 0.999999 0.999999 0.999999 0.999999 0.999999 0.999999 0.999999 0.999999
          0.999999 0.999999 0.999999 0.999999 0.999999 0.999999 0.999999 0.999999 0.999999 0.999999 0.999999 0.999999
          0.999999 0.999999 0.999999 0.999999 0.999999 0.999999 0.999999 0.999999 0.999999 0.999999 0.999999 0.999999
          0.999999 0.999999 0.999999 0.820046 0.822243 0.824468 0.826743 0.829098 0.831576 0.834243 0.837203 0.840627
          0.844808 0.85027 0.857949 0.869386 0.887025 0.921274 0.979697 0.999758 0.999999 0.999999 0.999999 0.999999
          0.999999 0.999999 0.999999 0.999999 0.999999 0.999999 0.999999 0.999999 0.999999 0.999999 0.999999 0.999999
          0.999999 0.999999 0.999999 0.999999 0.999999 0.999999 0.999999 0.999999 0.999999 0.999999 0.999999 0.999999
          0.999999 0.999999 0.999999 0.999999 0.999999 0.999999 0.815434 0.817484 0.819536 0.821603 0.823698 0.825841
          0.828059 0.830392 0.832895 0.83566 0.838829 0.842643 0.847528 0.85423 0.863882 0.878522 0.90646 0.961864
          0.998362 0.999999 0.999999 0.999999 0.999999 0.999999 0.999999 0.999999 0.999999 0.999999 0.999999 0.999999
          0.999999 0.999999 0.999999 0.999999 0.999999 0.999999 0.999999 0.999999 0.999999 0.999999 0.999999 0.999999
          0.999999 0.999999 0.999999 0.999999 0.999999 0.999999 0.999999 0.999999 0.999999 0.808699 0.810559 0.812408
          0.814251 0.816096 0.817953 0.819835 0.821758 0.823743 0.825822 0.828038 0.830456 0.833175 0.836353 0.840261
          0.845313 0.851953 0.861072 0.876643 0.905152 0.960105 0.998078 0.999999 0.999999 0.999999 0.999999 0.999999
          0.999999 0.999999 0.999999 0.999999 0.999999 0.999999 0.999999 0.999999 0.999999 0.999999 0.999999 0.999999
          0.999999 0.999999 0.999999 0.999999 0.999999 0.999999 0.999999 0.999999 0.999999 0.999999 0.999999 0.999999
          0.798208 0.799813 0.8014 0.802973 0.804536 0.806095 0.807656 0.809227 0.810818 0.812442 0.814117 0.815864
          0.817716 0.819715 0.821921 0.824423 0.827368 0.830961 0.835318 0.840427 0.846772 0.857715 0.875617 0.903128
          0.947477 0.991279 0.999972 0.999999 0.999999 0.999999 0.999999 0.999999 0.999999 0.999999 0.999999 0.999999
          0.999999 0.999999 0.999999 0.999999 0.999999 0.999999 0.999999 0.999999 0.999999 0.999999 0.999999 0.999999
          0.999999 0.999999 0.999999 0.781937 0.783254 0.784558 0.785852 0.787141 0.788429 0.789721 0.791024 0.792345
          0.793695 0.795085 0.796529 0.798046 0.799657 0.801388 0.803273 0.805346 0.807654 0.810259 0.81326 0.816771
          0.820813 0.825399 0.830642 0.837209 0.84634 0.860146 0.880162 0.908641 0.949669 0.987784 0.999512 0.999999
          0.999999 0.999999 0.999999 0.999999 0.999999 0.999999 0.999999 0.999999 0.999999 0.999999 0.999999 0.999999
          0.999999 0.999999 0.999999 0.999999 0.999999 0.999999 0.757394 0.758481 0.759575 0.76068 0.7618 0.762942
          0.764111 0.765315 0.766561 0.767858 0.769216 0.770645 0.772158 0.773768 0.775486 0.777328 0.779306 0.781439
          0.78374 0.786223 0.788899 0.79179 0.794933 0.79839 0.80224 0.806536 0.811295 0.816591 0.822731 0.830344
          0.840173 0.853736 0.872765 0.898432 0.933622 0.973173 0.995216 0.999993 0.999999 0.999999 0.999999 0.999999
          0.999999 0.999999 0.999999 0.999999 0.999999 0.999999 0.999999 0.999999 0.999999 0.719748 0.720748 0.721781
          0.722851 0.723962 0.72512 0.726329 0.727593 0.728918 0.730307 0.731767 0.733302 0.734919 0.736621 0.738415
[...]
      <CellData Scalars="process rank">
        <DataArray type="Float32" Name="process rank" NumberOfComponents="1" format="ascii">
          1 1 1 1 1 1 1 1 1 1 1 1
          1 1 1 1 1 1 1 1 1 1 1 1
          1 1 1 1 1 1 1 1 1 1 1 1
          1 1 1 1 1 1 1 1 1 1 1 1
          1 1 1 1 1 1 1 1 1 1 1 1
          1 1 1 1 1 1 1 1 1 1 1 1
          1 1 1 1 1 1 1 1 1 1 1 1
          1 1 1 1 1 1 1 1 1 1 1 1
          1 1 1 1 1 1 1 1 1 1 1 1
          1 1 1 1 1 1 1 1 1 1 1 1
          1 1 1 1 1 1 1 1 1 1 1 1
          1 1 1 1 1 1 1 1 1 1 1 1
          1 1 1 1 1 1 1 1 1 1 1 1
          1 1 1 1 1 1 1 1 1 1 1 1
          1 1 1 1 1 1 1 1 1 1 1 1
          1 1 1 1 1 1 1 1 1 1 1 1
          1 1 1 1 1 1 1 1 1 1 1 1
          1 1 1 1 1 1 1 1 1 1 1 1
          1 1 1 1 1 1 1 1 1 1 1 1
          1 1 1 1 1 1 1 1 1 1 1 1
          1 1 1 1 1 1 1 1 1 1 1 1
          1 1 1 1 1 1 1 1 1 1 1 1
          1 1 1 1 1 1 1 1 1 1 1 1
          1 1 1 1 1 1 1 1 1 1 1 1
          1 1 1 1 1 1 1 1 1 1 1 1
          1 1 1 1 1 1 1 1 1 1 1 1
          1 1 1 1 1 1 1 1 1 1 1 1
          1 1 1 1 1 1 1 1 1 1 1 1
          1 1 1 1 1 1 1 1 1 1 1 1
          1 1 1 1 1 1 1 1 1 1 1 1
          1 1 1 1 1 1 1 1 1 1 1 1
          1 1 1 1 1 1 1 1 1 1 1 1
          1 1 1 1 1 1 1 1 1 1 1 1
          1 1 1 1 1 1 1 1 1 1 1 1
          1 1 1 1 1 1 1 1 1 1 1 1
          1 1 1 1 1 1 1 1 1 1 1 1
          1 1 1 1 1 1 1 1 1 1 1 1
          1 1 1 1 1 1 1 1 1 1 1 1
          1 1 1 1 1 1 1 1 1 1 1 1
          1 1 1 1 1 1 1 1 1 1 1 1
          1 1 1 1 1 1 1 1 1 1 1 1
          1 1 1 1 1 1 1 1 1 1 1 1
          1 1 1 1 1 1 1 1 1 1 1 1
          1 1 1 1 1 1 1 1 1 1 1 1
          1 1 1 1 1 1 1 1 1 1 1 1
          1 1 1 1 1 1 1 1 1 1 1 1
          1 1 1 1 1 1 1 1 1 1 1 1
          1 1 1 1 1 1 1 1 1 1 1 1
          1 1 1 1 1 1 1 1 1 1 1 1
          1 1 1 1 1 1 1 1 1 1 1 1
          1 1 1 1 1 1 1 1 1 1 1 1
          1 1 1 1 1 1 1 1 1 1 1 1
          1 1 1 1 1 1 1 1 1 1 1 1
          1 1 1 1 1 1 1 1 1 1 1 1
          1 1 1 1 1 1 1 1 1 1 1 1
          1 1 1 1 1 1 1 1 1 1 1 1
          1 1 1 1 1 1 1 1 1 1 1 1
          1 1 1 1 1 1 1 1 1 1 1 1
          1 1 1 1 1 1 1 1 1 1 1 1
          1 1 1 1 1 1 1 1 1 1 1 1
          1 1 1 1 1 1 1 1 1 1 1 1
          1 1 1 1 1 1 1 1 1 1 1 1
          1 1 1 1 1 1 1 1 1 1 1 1
          1 1 1 1 1 1 1 1 1 1 1 1
          1 1 1 1 1 1 1 1 1 1 1 1
          1 1 1 1 1 1 1 1 1 1 1 1
          1 1 1 1 1 1 1 1 1 1 1 1
          1 1 1 1 1 1 1 1 1 1 1 1
          1 1 1 1 1 1 1 1 1 1 1 1
          1 1 1 1 1 1 1 1 1 1 1 1
          1 1 1 1 1 1 1 1 1 1 1 1
          1 1 1 1 1 1 1 1 1 1 1 1
          1 1 1 1 1 1 1 1 1 1 1 1
          1 1 1 1 1 1 1 1 1 1 1 1
          1 1 1 1 1 1 1 1 1 1 1 1
          1 1 1 1 1 1 1 1 1 1 1 1
          1 1 1 1 1 1 1 1 1 1 1 1
          1 1 1 1 1 1 1 1 1 1 1 1
          1 1 1 1 1 1 1 1 1 1 1 1
          1 1 1 1 1 1 1 1 1 1 1 1
          1 1 1 1 1 1 1 1 1 1 1 1
          1 1 1 1 1 1 1 1 1 1 1 1
          1 1 1 1 1 1 1 1 1 1 1 1
          1 1 1 1
        </DataArray>
      </CellData>
      <Points>
        <DataArray type="Float32" Name="Coordinates" NumberOfComponents="3" format="ascii">
          250.2 0 0 255.2 0 0 250.2 3 0 255.2 3 0
          260.2 0 0 260.2 3 0 265.2 0 0 265.2 3 0
          270.2 0 0 270.2 3 0 275.2 0 0 275.2 3 0
          280.2 0 0 280.2 3 0 285.2 0 0 285.2 3 0
          290.2 0 0 290.2 3 0 295.2 0 0 295.2 3 0
          300.2 0 0 300.2 3 0 305.2 0 0 305.2 3 0
          310.2 0 0 310.2 3 0 315.2 0 0 315.2 3 0
          320.2 0 0 320.2 3 0 325.2 0 0 325.2 3 0
          330.2 0 0 330.2 3 0 335.2 0 0 335.2 3 0
          340.2 0 0 340.2 3 0 345.2 0 0 345.2 3 0
          350.2 0 0 350.2 3 0 355.2 0 0 355.2 3 0
          360.2 0 0 360.2 3 0 365.2 0 0 365.2 3 0
          370.2 0 0 370.2 3 0 375.2 0 0 375.2 3 0
          380.2 0 0 380.2 3 0 385.2 0 0 385.2 3 0
          390.2 0 0 390.2 3 0 395.2 0 0 395.2 3 0
          400.2 0 0 400.2 3 0 405.2 0 0 405.2 3 0
          410.2 0 0 410.2 3 0 415.2 0 0 415.2 3 0
          420.2 0 0 420.2 3 0 425.2 0 0 425.2 3 0
          430.2 0 0 430.2 3 0 435.2 0 0 435.2 3 0
          440.2 0 0 440.2 3 0 445.2 0 0 445.2 3 0
          450.2 0 0 450.2 3 0 455.2 0 0 455.2 3 0
          460.2 0 0 460.2 3 0 465.2 0 0 465.2 3 0
          470.2 0 0 470.2 3 0 475.2 0 0 475.2 3 0
          480.2 0 0 480.2 3 0 485.2 0 0 485.2 3 0
          490.2 0 0 490.2 3 0 495.2 0 0 495.2 3 0
          500.2 0 0 500.2 3 0 250.2 6 0 255.2 6 0
          260.2 6 0 265.2 6 0 270.2 6 0 275.2 6 0
          280.2 6 0 285.2 6 0 290.2 6 0 295.2 6 0
          300.2 6 0 305.2 6 0 310.2 6 0 315.2 6 0
          320.2 6 0 325.2 6 0 330.2 6 0 335.2 6 0
          340.2 6 0 345.2 6 0 350.2 6 0 355.2 6 0
          360.2 6 0 365.2 6 0 370.2 6 0 375.2 6 0
          380.2 6 0 385.2 6 0 390.2 6 0 395.2 6 0
          400.2 6 0 405.2 6 0 410.2 6 0 415.2 6 0
          420.2 6 0 425.2 6 0 430.2 6 0 435.2 6 0
          440.2 6 0 445.2 6 0 450.2 6 0 455.2 6 0
          460.2 6 0 465.2 6 0 470.2 6 0 475.2 6 0
          480.2 6 0 485.2 6 0 490.2 6 0 495.2 6 0
          500.2 6 0 250.2 9 0 255.2 9 0 260.2 9 0
          265.2 9 0 270.2 9 0 275.2 9 0 280.2 9 0
          285.2 9 0 290.2 9 0 295.2 9 0 300.2 9 0
          305.2 9 0 310.2 9 0 315.2 9 0 320.2 9 0
          325.2 9 0 330.2 9 0 335.2 9 0 340.2 9 0
          345.2 9 0 350.2 9 0 355.2 9 0 360.2 9 0
          365.2 9 0 370.2 9 0 375.2 9 0 380.2 9 0
          385.2 9 0 390.2 9 0 395.2 9 0 400.2 9 0
          405.2 9 0 410.2 9 0 415.2 9 0 420.2 9 0
          425.2 9 0 430.2 9 0 435.2 9 0 440.2 9 0
          445.2 9 0 450.2 9 0 455.2 9 0 460.2 9 0
          465.2 9 0 470.2 9 0 475.2 9 0 480.2 9 0
          485.2 9 0 490.2 9 0 495.2 9 0 500.2 9 0
          250.2 12 0 255.2 12 0 260.2 12 0 265.2 12 0
          270.2 12 0 275.2 12 0 280.2 12 0 285.2 12 0
          290.2 12 0 295.2 12 0 300.2 12 0 305.2 12 0
          310.2 12 0 315.2 12 0 320.2 12 0 325.2 12 0
          330.2 12 0 335.2 12 0 340.2 12 0 345.2 12 0
          350.2 12 0 355.2 12 0 360.2 12 0 365.2 12 0
          370.2 12 0 375.2 12 0 380.2 12 0 385.2 12 0
          390.2 12 0 395.2 12 0 400.2 12 0 405.2 12 0
          410.2 12 0 415.2 12 0 420.2 12 0 425.2 12 0
          430.2 12 0 435.2 12 0 440.2 12 0 445.2 12 0
          450.2 12 0 455.2 12 0 460.2 12 0 465.2 12 0
          470.2 12 0 475.2 12 0 480.2 12 0 485.2 12 0
          490.2 12 0 495.2 12 0 500.2 12 0 250.2 15 0
          255.2 15 0 260.2 15 0 265.2 15 0 270.2 15 0
          275.2 15 0 280.2 15 0 285.2 15 0 290.2 15 0
          295.2 15 0 300.2 15 0 305.2 15 0 310.2 15 0
          315.2 15 0 320.2 15 0 325.2 15 0 330.2 15 0
          335.2 15 0 340.2 15 0 345.2 15 0 350.2 15 0
          355.2 15 0 360.2 15 0 365.2 15 0 370.2 15 0
          375.2 15 0 380.2 15 0 385.2 15 0 390.2 15 0
          395.2 15 0 400.2 15 0 405.2 15 0 410.2 15 0
          415.2 15 0 420.2 15 0 425.2 15 0 430.2 15 0
          435.2 15 0 440.2 15 0 445.2 15 0 450.2 15 0
          455.2 15 0 460.2 15 0 465.2 15 0 470.2 15 0
          475.2 15 0 480.2 15 0 485.2 15 0 490.2 15 0
          495.2 15 0 500.2 15 0 250.2 18 0 255.2 18 0
          260.2 18 0 265.2 18 0 270.2 18 0 275.2 18 0
          280.2 18 0 285.2 18 0 290.2 18 0 295.2 18 0
          300.2 18 0 305.2 18 0 310.2 18 0 315.2 18 0
          320.2 18 0 325.2 18 0 330.2 18 0 335.2 18 0
          340.2 18 0 345.2 18 0 350.2 18 0 355.2 18 0
          360.2 18 0 365.2 18 0 370.2 18 0 375.2 18 0
          380.2 18 0 385.2 18 0 390.2 18 0 395.2 18 0
          400.2 18 0 405.2 18 0 410.2 18 0 415.2 18 0
          420.2 18 0 425.2 18 0 430.2 18 0 435.2 18 0
          440.2 18 0 445.2 18 0 450.2 18 0 455.2 18 0
          460.2 18 0 465.2 18 0 470.2 18 0 475.2 18 0
          480.2 18 0 485.2 18 0 490.2 18 0 495.2 18 0
          500.2 18 0 250.2 21 0 255.2 21 0 260.2 21 0
          265.2 21 0 270.2 21 0 275.2 21 0 280.2 21 0
          285.2 21 0 290.2 21 0 295.2 21 0 300.2 21 0
          305.2 21 0 310.2 21 0 315.2 21 0 320.2 21 0
          325.2 21 0 330.2 21 0 335.2 21 0 340.2 21 0
          345.2 21 0 350.2 21 0 355.2 21 0 360.2 21 0
          365.2 21 0 370.2 21 0 375.2 21 0 380.2 21 0
          385.2 21 0 390.2 21 0 395.2 21 0 400.2 21 0
          405.2 21 0 410.2 21 0 415.2 21 0 420.2 21 0
          425.2 21 0 430.2 21 0 435.2 21 0 440.2 21 0
          445.2 21 0 450.2 21 0 455.2 21 0 460.2 21 0
          465.2 21 0 470.2 21 0 475.2 21 0 480.2 21 0
          485.2 21 0 490.2 21 0 495.2 21 0 500.2 21 0
          250.2 24 0 255.2 24 0 260.2 24 0 265.2 24 0
          270.2 24 0 275.2 24 0 280.2 24 0 285.2 24 0
          290.2 24 0 295.2 24 0 300.2 24 0 305.2 24 0
          310.2 24 0 315.2 24 0 320.2 24 0 325.2 24 0
          330.2 24 0 335.2 24 0 340.2 24 0 345.2 24 0
          350.2 24 0 355.2 24 0 360.2 24 0 365.2 24 0
          370.2 24 0 375.2 24 0 380.2 24 0 385.2 24 0
          390.2 24 0 395.2 24 0 400.2 24 0 405.2 24 0
          410.2 24 0 415.2 24 0 420.2 24 0 425.2 24 0
          430.2 24 0 435.2 24 0 440.2 24 0 445.2 24 0
          450.2 24 0 455.2 24 0 460.2 24 0 465.2 24 0
          470.2 24 0 475.2 24 0 480.2 24 0 485.2 24 0
          490.2 24 0 495.2 24 0 500.2 24 0 250.2 27 0
          255.2 27 0 260.2 27 0 265.2 27 0 270.2 27 0
          275.2 27 0 280.2 27 0 285.2 27 0 290.2 27 0
          295.2 27 0 300.2 27 0 305.2 27 0 310.2 27 0
          315.2 27 0 320.2 27 0 325.2 27 0 330.2 27 0
          335.2 27 0 340.2 27 0 345.2 27 0 350.2 27 0
          355.2 27 0 360.2 27 0 365.2 27 0 370.2 27 0
          375.2 27 0 380.2 27 0 385.2 27 0 390.2 27 0
          395.2 27 0 400.2 27 0 405.2 27 0 410.2 27 0
          415.2 27 0 420.2 27 0 425.2 27 0 430.2 27 0
          435.2 27 0 440.2 27 0 445.2 27 0 450.2 27 0
          455.2 27 0 460.2 27 0 465.2 27 0 470.2 27 0
          475.2 27 0 480.2 27 0 485.2 27 0 490.2 27 0
          495.2 27 0 500.2 27 0 250.2 30 0 255.2 30 0
          260.2 30 0 265.2 30 0 270.2 30 0 275.2 30 0
          280.2 30 0 285.2 30 0 290.2 30 0 295.2 30 0
          300.2 30 0 305.2 30 0 310.2 30 0 315.2 30 0
          320.2 30 0 325.2 30 0 330.2 30 0 335.2 30 0
          340.2 30 0 345.2 30 0 350.2 30 0 355.2 30 0
          360.2 30 0 365.2 30 0 370.2 30 0 375.2 30 0
          380.2 30 0 385.2 30 0 390.2 30 0 395.2 30 0
          400.2 30 0 405.2 30 0 410.2 30 0 415.2 30 0
          420.2 30 0 425.2 30 0 430.2 30 0 435.2 30 0
          440.2 30 0 445.2 30 0 450.2 30 0 455.2 30 0
          460.2 30 0 465.2 30 0 470.2 30 0 475.2 30 0
          480.2 30 0 485.2 30 0 490.2 30 0 495.2 30 0
          500.2 30 0 250.2 33 0 255.2 33 0 260.2 33 0
          265.2 33 0 270.2 33 0 275.2 33 0 280.2 33 0
          285.2 33 0 290.2 33 0 295.2 33 0 300.2 33 0
          305.2 33 0 310.2 33 0 315.2 33 0 320.2 33 0
          325.2 33 0 330.2 33 0 335.2 33 0 340.2 33 0
          345.2 33 0 350.2 33 0 355.2 33 0 360.2 33 0
          365.2 33 0 370.2 33 0 375.2 33 0 380.2 33 0
          385.2 33 0 390.2 33 0 395.2 33 0 400.2 33 0
          405.2 33 0 410.2 33 0 415.2 33 0 420.2 33 0
          425.2 33 0 430.2 33 0 435.2 33 0 440.2 33 0
          445.2 33 0 450.2 33 0 455.2 33 0 460.2 33 0
          465.2 33 0 470.2 33 0 475.2 33 0 480.2 33 0
          485.2 33 0 490.2 33 0 495.2 33 0 500.2 33 0
          250.2 36 0 255.2 36 0 260.2 36 0 265.2 36 0
          270.2 36 0 275.2 36 0 280.2 36 0 285.2 36 0
          290.2 36 0 295.2 36 0 300.2 36 0 305.2 36 0
          310.2 36 0 315.2 36 0 320.2 36 0 325.2 36 0
          330.2 36 0 335.2 36 0 340.2 36 0 345.2 36 0
          350.2 36 0 355.2 36 0 360.2 36 0 365.2 36 0
          370.2 36 0 375.2 36 0 380.2 36 0 385.2 36 0
          390.2 36 0 395.2 36 0 400.2 36 0 405.2 36 0
          410.2 36 0 415.2 36 0 420.2 36 0 425.2 36 0
          430.2 36 0 435.2 36 0 440.2 36 0 445.2 36 0
          450.2 36 0 455.2 36 0 460.2 36 0 465.2 36 0
          470.2 36 0 475.2 36 0 480.2 36 0 485.2 36 0
          490.2 36 0 495.2 36 0 500.2 36 0 250.2 39 0
          255.2 39 0 260.2 39 0 265.2 39 0 270.2 39 0
          275.2 39 0 280.2 39 0 285.2 39 0 290.2 39 0
          295.2 39 0 300.2 39 0 305.2 39 0 310.2 39 0
          315.2 39 0 320.2 39 0 325.2 39 0 330.2 39 0
          335.2 39 0 340.2 39 0 345.2 39 0 350.2 39 0
          355.2 39 0 360.2 39 0 365.2 39 0 370.2 39 0
          375.2 39 0 380.2 39 0 385.2 39 0 390.2 39 0
          395.2 39 0 400.2 39 0 405.2 39 0 410.2 39 0
          415.2 39 0 420.2 39 0 425.2 39 0 430.2 39 0
          435.2 39 0 440.2 39 0 445.2 39 0 450.2 39 0
          455.2 39 0 460.2 39 0 465.2 39 0 470.2 39 0
          475.2 39 0 480.2 39 0 485.2 39 0 490.2 39 0
          495.2 39 0 500.2 39 0 250.2 42 0 255.2 42 0
          260.2 42 0 265.2 42 0 270.2 42 0 275.2 42 0
          280.2 42 0 285.2 42 0 290.2 42 0 295.2 42 0
          300.2 42 0 305.2 42 0 310.2 42 0 315.2 42 0
          320.2 42 0 325.2 42 0 330.2 42 0 335.2 42 0
          340.2 42 0 345.2 42 0 350.2 42 0 355.2 42 0
          360.2 42 0 365.2 42 0 370.2 42 0 375.2 42 0
          380.2 42 0 385.2 42 0 390.2 42 0 395.2 42 0
          400.2 42 0 405.2 42 0 410.2 42 0 415.2 42 0
          420.2 42 0 425.2 42 0 430.2 42 0 435.2 42 0
          440.2 42 0 445.2 42 0 450.2 42 0 455.2 42 0
          460.2 42 0 465.2 42 0 470.2 42 0 475.2 42 0
          480.2 42 0 485.2 42 0 490.2 42 0 495.2 42 0
          500.2 42 0 250.2 45 0 255.2 45 0 260.2 45 0
          265.2 45 0 270.2 45 0 275.2 45 0 280.2 45 0
          285.2 45 0 290.2 45 0 295.2 45 0 300.2 45 0
          305.2 45 0 310.2 45 0 315.2 45 0 320.2 45 0
          325.2 45 0 330.2 45 0 335.2 45 0 340.2 45 0
          345.2 45 0 350.2 45 0 355.2 45 0 360.2 45 0
          365.2 45 0 370.2 45 0 375.2 45 0 380.2 45 0
          385.2 45 0 390.2 45 0 395.2 45 0 400.2 45 0
          405.2 45 0 410.2 45 0 415.2 45 0 420.2 45 0
          425.2 45 0 430.2 45 0 435.2 45 0 440.2 45 0
          445.2 45 0 450.2 45 0 455.2 45 0 460.2 45 0
          465.2 45 0 470.2 45 0 475.2 45 0 480.2 45 0
          485.2 45 0 490.2 45 0 495.2 45 0 500.2 45 0
          250.2 48 0 255.2 48 0 260.2 48 0 265.2 48 0
          270.2 48 0 275.2 48 0 280.2 48 0 285.2 48 0
          290.2 48 0 295.2 48 0 300.2 48 0 305.2 48 0
          310.2 48 0 315.2 48 0 320.2 48 0 325.2 48 0
          330.2 48 0 335.2 48 0 340.2 48 0 345.2 48 0
          350.2 48 0 355.2 48 0 360.2 48 0 365.2 48 0
          370.2 48 0 375.2 48 0 380.2 48 0 385.2 48 0
          390.2 48 0 395.2 48 0 400.2 48 0 405.2 48 0
          410.2 48 0 415.2 48 0 420.2 48 0 425.2 48 0
          430.2 48 0 435.2 48 0 440.2 48 0 445.2 48 0
          450.2 48 0 455.2 48 0 460.2 48 0 465.2 48 0
          470.2 48 0 475.2 48 0 480.2 48 0 485.2 48 0
          490.2 48 0 495.2 48 0 500.2 48 0 250.2 51 0
          255.2 51 0 260.2 51 0 265.2 51 0 270.2 51 0
          275.2 51 0 280.2 51 0 285.2 51 0 290.2 51 0
          295.2 51 0 300.2 51 0 305.2 51 0 310.2 51 0
          315.2 51 0 320.2 51 0 325.2 51 0 330.2 51 0
          335.2 51 0 340.2 51 0 345.2 51 0 350.2 51 0
          355.2 51 0 360.2 51 0 365.2 51 0 370.2 51 0
          375.2 51 0 380.2 51 0 385.2 51 0 390.2 51 0
          395.2 51 0 400.2 51 0 405.2 51 0 410.2 51 0
          415.2 51 0 420.2 51 0 425.2 51 0 430.2 51 0
          435.2 51 0 440.2 51 0 445.2 51 0 450.2 51 0
          455.2 51 0 460.2 51 0 465.2 51 0 470.2 51 0
          475.2 51 0 480.2 51 0 485.2 51 0 490.2 51 0
          495.2 51 0 500.2 51 0 250.2 54 0 255.2 54 0
          260.2 54 0 265.2 54 0 270.2 54 0 275.2 54 0
          280.2 54 0 285.2 54 0 290.2 54 0 295.2 54 0
          300.2 54 0 305.2 54 0 310.2 54 0 315.2 54 0
          320.2 54 0 325.2 54 0 330.2 54 0 335.2 54 0
          340.2 54 0 345.2 54 0 350.2 54 0 355.2 54 0
          360.2 54 0 365.2 54 0 370.2 54 0 375.2 54 0
          380.2 54 0 385.2 54 0 390.2 54 0 395.2 54 0
          400.2 54 0 405.2 54 0 410.2 54 0 415.2 54 0
          420.2 54 0 425.2 54 0 430.2 54 0 435.2 54 0
          440.2 54 0 445.2 54 0 450.2 54 0 455.2 54 0
          460.2 54 0 465.2 54 0 470.2 54 0 475.2 54 0
          480.2 54 0 485.2 54 0 490.2 54 0 495.2 54 0
          500.2 54 0 250.2 57 0 255.2 57 0 260.2 57 0
          265.2 57 0 270.2 57 0 275.2 57 0 280.2 57 0
          285.2 57 0 290.2 57 0 295.2 57 0 300.2 57 0
          305.2 57 0 310.2 57 0 315.2 57 0 320.2 57 0
          325.2 57 0 330.2 57 0 335.2 57 0 340.2 57 0
          345.2 57 0 350.2 57 0 355.2 57 0 360.2 57 0
          365.2 57 0 370.2 57 0 375.2 57 0 380.2 57 0
          385.2 57 0 390.2 57 0 395.2 57 0 400.2 57 0
          405.2 57 0 410.2 57 0 415.2 57 0 420.2 57 0
          425.2 57 0 430.2 57 0 435.2 57 0 440.2 57 0
          445.2 57 0 450.2 57 0 455.2 57 0 460.2 57 0
          465.2 57 0 470.2 57 0 475.2 57 0 480.2 57 0
          485.2 57 0 490.2 57 0 495.2 57 0 500.2 57 0
          250.2 60 0 255.2 60 0 260.2 60 0 265.2 60 0
          270.2 60 0 275.2 60 0 280.2 60 0 285.2 60 0
          290.2 60 0 295.2 60 0 300.2 60 0 305.2 60 0
          310.2 60 0 315.2 60 0 320.2 60 0 325.2 60 0
          330.2 60 0 335.2 60 0 340.2 60 0 345.2 60 0
          350.2 60 0 355.2 60 0 360.2 60 0 365.2 60 0
          370.2 60 0 375.2 60 0 380.2 60 0 385.2 60 0
          390.2 60 0 395.2 60 0 400.2 60 0 405.2 60 0
          410.2 60 0 415.2 60 0 420.2 60 0 425.2 60 0
          430.2 60 0 435.2 60 0 440.2 60 0 445.2 60 0
          450.2 60 0 455.2 60 0 460.2 60 0 465.2 60 0
          470.2 60 0 475.2 60 0 480.2 60 0 485.2 60 0
          490.2 60 0 495.2 60 0 500.2 60 0
        </DataArray>
      </Points>
      <Cells>
        <DataArray type="Int32" Name="connectivity" NumberOfComponents="1" format="ascii">
          0 1 3 2 1 4 5 3 4 6 7 5
          6 8 9 7 8 10 11 9 10 12 13 11
          12 14 15 13 14 16 17 15 16 18 19 17
          18 20 21 19 20 22 23 21 22 24 25 23
          24 26 27 25 26 28 29 27 28 30 31 29
          30 32 33 31 32 34 35 33 34 36 37 35
          36 38 39 37 38 40 41 39 40 42 43 41
          42 44 45 43 44 46 47 45 46 48 49 47
          48 50 51 49 50 52 53 51 52 54 55 53
          54 56 57 55 56 58 59 57 58 60 61 59
          60 62 63 61 62 64 65 63 64 66 67 65
          66 68 69 67 68 70 71 69 70 72 73 71
          72 74 75 73 74 76 77 75 76 78 79 77
          78 80 81 79 80 82 83 81 82 84 85 83
          84 86 87 85 86 88 89 87 88 90 91 89
          90 92 93 91 92 94 95 93 94 96 97 95
          96 98 99 97 98 100 101 99 2 3 103 102
          3 5 104 103 5 7 105 104 7 9 106 105
          9 11 107 106 11 13 108 107 13 15 109 108
          15 17 110 109 17 19 111 110 19 21 112 111
          21 23 113 112 23 25 114 113 25 27 115 114
          27 29 116 115 29 31 117 116 31 33 118 117
          33 35 119 118 35 37 120 119 37 39 121 120
          39 41 122 121 41 43 123 122 43 45 124 123
          45 47 125 124 47 49 126 125 49 51 127 126
          51 53 128 127 53 55 129 128 55 57 130 129
          57 59 131 130 59 61 132 131 61 63 133 132
          63 65 134 133 65 67 135 134 67 69 136 135
          69 71 137 136 71 73 138 137 73 75 139 138
          75 77 140 139 77 79 141 140 79 81 142 141
          81 83 143 142 83 85 144 143 85 87 145 144
          87 89 146 145 89 91 147 146 91 93 148 147
          93 95 149 148 95 97 150 149 97 99 151 150
          99 101 152 151 102 103 154 153 103 104 155 154
          104 105 156 155 105 106 157 156 106 107 158 157
          107 108 159 158 108 109 160 159 109 110 161 160
          110 111 162 161 111 112 163 162 112 113 164 163
          113 114 165 164 114 115 166 165 115 116 167 166
          116 117 168 167 117 118 169 168 118 119 170 169
          119 120 171 170 120 121 172 171 121 122 173 172
          122 123 174 173 123 124 175 174 124 125 176 175
          125 126 177 176 126 127 178 177 127 128 179 178
          128 129 180 179 129 130 181 180 130 131 182 181
          131 132 183 182 132 133 184 183 133 134 185 184
          134 135 186 185 135 136 187 186 136 137 188 187
          137 138 189 188 138 139 190 189 139 140 191 190
          140 141 192 191 141 142 193 192 142 143 194 193
          143 144 195 194 144 145 196 195 145 146 197 196