<?xml version="1.0"?>
<VTKFile type="UnstructuredGrid" version="0.1" byte_order="LittleEndian">
  <UnstructuredGrid>
    <Piece NumberOfCells="360" NumberOfPoints="399">
      <PointData Scalars="S_liq" Vectors="velocity_liq (m/s)">
        <DataArray type="Float32" Name="S_liq" NumberOfComponents="1" format="ascii">
          0.999999 0.999999 0.999999 0.999999 0.999999 0.999999 0.999999 0.999999 0.999999 0.999999 0.999999 0.999999
          0.999999 0.999999 0.999999 0.999999 0.999999 0.999999 0.999999 0.999999 0.999999 0.999999 0.999999 0.999999
          0.999999 0.999999 0.999999 0.999999 0.999999 0.999999 0.999999 0.999999 0.999999 0.999999 0.999999 0.999999
          0.999999 0.999999 0.999999 0.999999 0.999999 0.999999 0.999999 0.999999 0.999999 0.999999 0.999999 0.999999
          0.999999 0.999999 0.999999 0.999999 0.999999 0.999999 0.999999 0.999999 0.999999 0.999999 0.999999 0.999999
          0.999999 0.999999 0.999999 0.999999 0.999999 0.999999 0.999999 0.999999 0.999999 0.999999 0.999999 0.999999
          0.999999 0.999999 0.999999 0.999999 0.999999 0.999999 0.999999 0.999999 0.999999 0.999999 0.999999 0.999999
          0.999999 0.999999 0.999999 0.999999 0.999999 0.999999 0.999999 0.999999 0.999999 0.999999 0.999999 0.999999
          0.999999 0.999999 0.999999 0.999999 0.999999 0.999999 0.999999 0.999999 0.999999 0.999999 0.999999 0.999999
          0.999999 0.999999 0.999999 0.999999 0.999999 0.999999 0.999999 0.999999 0.999999 0.999999 0.999999 0.999999
          0.999999 0.999999 0.999999 0.999999 0.999999 0.999999 0.999999 0.999999 0.999999 0.999999 0.999999 0.999999
          0.999999 0.999999 0.999999 0.999999 0.999999 0.999999 0.999999 0.999999 0.999999 0.999999 0.999999 0.999999
          0.999999 0.999999 0.999999 0.999999 0.999999 0.999999 0.999999 0.999999 0.999999 0.999999 0.999999 0.999999
          0.999999 0.999999 0.999999 0.999999 0.999999 0.999999 0.999999 0.999999 0.999999 0.999999 0.999999 0.999999
          0.999999 0.999999 0.999999 0.999642 0.999999 0.999999 0.999999 0.999999 0.999999 0.999999 0.999999 0.999999
          0.999999 0.999999 0.999999 0.999999 0.999999 0.999999 0.999999 0.999999 0.999999 0.999999 0.936364 0.997531
          0.999999 0.999999 0.999999 0.999999 0.999999 0.999999 0.999999 0.999999 0.999999 0.999999 0.999999 0.999999
          0.999999 0.999999 0.999999 0.999999 0.999999 0.857237 0.911416 0.992963 0.999998 0.999999 0.999999 0.999999
          0.999999 0.999999 0.999999 0.999999 0.999999 0.999999 0.999999 0.999999 0.999999 0.999999 0.999999 0.999999
          0.808353 0.848733 0.900609 0.989551 0.999996 0.999999 0.999999 0.999999 0.999999 0.999999 0.999999 0.999999
          0.999999 0.999999 0.999999 0.999999 0.999999 0.999999 0.999999 0.768349 0.804121 0.846217 0.900875 0.9909
          0.999997 0.999999 0.999999 0.999999 0.999999 0.999999 0.999999 0.999999 0.999999 0.999999 0.999999 0.999999
          0.999999 0.999999 0.739284 0.768172 0.805351 0.849895 0.912678 0.99547 0.999999 0.999999 0.999999 0.999999
          0.999999 0.999999 0.999999 0.999999 0.999999 0.999999 0.999999 0.999999 0.999999 0.720355 0.742243 0.772627
          0.811768 0.859547 0.938619 0.998975 0.999999 0.999999 0.999999 0.999999 0.999999 0.999999 0.999999 0.999999
          0.999999 0.999999 0.999999 0.999999 0.70736 0.724714 0.748327 0.781011 0.82312 0.875701 0.971653 0.999931
          0.999999 0.999999 0.999999 0.999999 0.999999 0.999999 0.999999 0.999999 0.999999 0.999999 0.999999 0.696518
          0.711555 0.730363 0.756183 0.792125 0.838414 0.902604 0.992559 0.999998 0.999999 0.999999 0.999999 0.999999
          0.999999 0.999999 0.999999 0.999999 0.999999 0.999999 0.68363 0.697539 0.713583 0.733708 0.761686 0.800579
          0.850529 0.928607 0.998056 0.999999 0.999999 0.999999 0.999999 0.999999 0.999999 0.999999 0.999999 0.999999
          0.999999 0.65809 0.671424 0.686039 0.702698 0.723439 0.752137 0.792569 0.844137 0.920886 0.997095 0.999999
          0.999999 0.999999 0.999999 0.999999 0.999999 0.999999 0.999999 0.999999 0.57787 0.590385 0.60403 0.619144
          0.636388 0.65742 0.68654 0.731833 0.793176 0.872246 0.987103 0.999995 0.999999 0.999999 0.999999 0.999999
          0.999999 0.999999 0.999999
        </DataArray>
        <DataArray type="Float32" Name="p_liq" NumberOfComponents="1" format="ascii">
          1.99092e+07 1.99208e+07 1.98791e+07 1.98907e+07 1.99324e+07 1.99024e+07 1.99439e+07 1.9914e+07 1.99554e+07 1.99255e+07 1.99667e+07 1.99369e+07
          1.99779e+07 1.99482e+07 1.9989e+07 1.99593e+07 2e+07 1.99703e+07 2.00107e+07 1.99811e+07 2.00213e+07 1.99917e+07 2.00317e+07 2.00021e+07
          2.00419e+07 2.00123e+07 2.00519e+07 2.00223e+07 2.00617e+07 2.00322e+07 2.00714e+07 2.00418e+07 2.00808e+07 2.00513e+07 2.00901e+07 2.00606e+07
          2.00991e+07 2.00696e+07 1.98476e+07 1.98595e+07 1.98714e+07 1.98832e+07 1.98948e+07 1.99064e+07 1.99178e+07 1.9929e+07 1.99401e+07 1.9951e+07
          1.99617e+07 1.99722e+07 1.99824e+07 1.99925e+07 2.00024e+07 2.00121e+07 2.00216e+07 2.00309e+07 2.004e+07 1.98148e+07 1.98271e+07 1.98393e+07
          1.98514e+07 1.98634e+07 1.98752e+07 1.98868e+07 1.98982e+07 1.99095e+07 1.99205e+07 1.99313e+07 1.99419e+07 1.99523e+07 1.99625e+07 1.99724e+07
          1.99822e+07 1.99917e+07 2.00011e+07 2.00102e+07 1.97808e+07 1.97936e+07 1.98063e+07 1.98188e+07 1.98311e+07 1.98433e+07 1.98552e+07 1.98669e+07
          1.98784e+07 1.98896e+07 1.99006e+07 1.99114e+07 1.99219e+07 1.99322e+07 1.99423e+07 1.99521e+07 1.99617e+07 1.99712e+07 1.99804e+07 1.97455e+07
          1.9759e+07 1.97723e+07 1.97854e+07 1.97982e+07 1.98108e+07 1.98231e+07 1.98351e+07 1.98469e+07 1.98584e+07 1.98696e+07 1.98805e+07 1.98912e+07
          1.99017e+07 1.99119e+07 1.99219e+07 1.99316e+07 1.99411e+07 1.99504e+07 1.9709e+07 1.97234e+07 1.97374e+07 1.97512e+07 1.97646e+07 1.97777e+07
          1.97905e+07 1.98029e+07 1.9815e+07 1.98268e+07 1.98383e+07 1.98495e+07 1.98604e+07 1.9871e+07 1.98814e+07 1.98915e+07 1.99013e+07 1.9911e+07
          1.99203e+07 1.96714e+07 1.96868e+07 1.97018e+07 1.97163e+07 1.97305e+07 1.97442e+07 1.97575e+07 1.97704e+07 1.97829e+07 1.9795e+07 1.98068e+07
          1.98183e+07 1.98294e+07 1.98402e+07 1.98508e+07 1.9861e+07 1.9871e+07 1.98807e+07 1.98902e+07 1.9633e+07 1.96496e+07 1.96656e+07 1.9681e+07
          1.96959e+07 1.97103e+07 1.97242e+07 1.97376e+07 1.97505e+07 1.9763e+07 1.97752e+07 1.97869e+07 1.97983e+07 1.98093e+07 1.982e+07 1.98305e+07
          1.98406e+07 1.98504e+07 1.986e+07 1.95937e+07 1.96118e+07 1.96289e+07 1.96453e+07 1.9661e+07 1.96762e+07 1.96907e+07 1.97046e+07 1.9718e+07
          1.9731e+07 1.97434e+07 1.97555e+07 1.97671e+07 1.97784e+07 1.97893e+07 1.97999e+07 1.98101e+07 1.98201e+07 1.98298e+07 1.95551e+07 1.95734e+07
          1.9592e+07 1.96094e+07 1.96261e+07 1.9642e+07 1.96571e+07 1.96716e+07 1.96855e+07 1.96989e+07 1.97117e+07 1.9724e+07 1.97359e+07 1.97474e+07
          1.97585e+07 1.97692e+07 1.97797e+07 1.97898e+07 1.97996e+07 1.95073e+07 1.95362e+07 1.95549e+07 1.95736e+07 1.95912e+07 1.96078e+07 1.96237e+07
          1.96387e+07 1.96531e+07 1.96668e+07 1.968e+07 1.96926e+07 1.97048e+07 1.97165e+07 1.97278e+07 1.97387e+07 1.97492e+07 1.97594e+07 1.97693e+07
          1.9455e+07 1.94884e+07 1.95189e+07 1.9538e+07 1.95566e+07 1.9574e+07 1.95905e+07 1.9606e+07 1.96209e+07 1.9635e+07 1.96485e+07 1.96614e+07
          1.96737e+07 1.96856e+07 1.96971e+07 1.97081e+07 1.97188e+07 1.97292e+07 1.97392e+07 1.9408e+07 1.944e+07 1.94733e+07 1.95036e+07 1.95224e+07
          1.95406e+07 1.95576e+07 1.95737e+07 1.95889e+07 1.96034e+07 1.96171e+07 1.96303e+07 1.96428e+07 1.96549e+07 1.96665e+07 1.96777e+07 1.96885e+07
          1.9699e+07 1.9709e+07 1.93688e+07 1.93972e+07 1.94288e+07 1.94614e+07 1.94897e+07 1.95078e+07 1.95254e+07 1.95418e+07 1.95573e+07 1.95721e+07
          1.9586e+07 1.95994e+07 1.96122e+07 1.96244e+07 1.96361e+07 1.96474e+07 1.96583e+07 1.96688e+07 1.9679e+07 1.93357e+07 1.93613e+07 1.93893e+07
          1.94202e+07 1.94519e+07 1.94763e+07 1.94937e+07 1.95105e+07 1.95262e+07 1.95411e+07 1.95553e+07 1.95688e+07 1.95817e+07 1.9594e+07 1.96059e+07
          1.96172e+07 1.96282e+07 1.96388e+07 1.9649e+07 1.93069e+07 1.93308e+07 1.93558e+07 1.93832e+07 1.94133e+07 1.94431e+07 1.94629e+07 1.94797e+07
          1.94956e+07 1.95107e+07 1.95249e+07 1.95385e+07 1.95515e+07 1.95639e+07 1.95758e+07 1.95872e+07 1.95983e+07 1.96089e+07 1.96192e+07 1.9282e+07
          1.93045e+07 1.93273e+07 1.93513e+07 1.93779e+07 1.94065e+07 1.94327e+07 1.94495e+07 1.94655e+07 1.94806e+07 1.9495e+07 1.95086e+07 1.95216e+07
          1.9534e+07 1.95459e+07 1.95574e+07 1.95684e+07 1.95791e+07 1.95894e+07 1.92608e+07 1.92821e+07 1.93031e+07 1.93243e+07 1.93468e+07 1.93717e+07
          1.93983e+07 1.94205e+07 1.94359e+07 1.94512e+07 1.94654e+07 1.9479e+07 1.94919e+07 1.95043e+07 1.95162e+07 1.95277e+07 1.95387e+07 1.95494e+07
          1.95597e+07 1.92439e+07 1.92639e+07 1.92832e+07 1.93022e+07 1.93213e+07 1.93411e+07 1.93632e+07 1.93873e+07 1.94081e+07 1.94221e+07 1.94364e+07
          1.94498e+07 1.94625e+07 1.94748e+07 1.94866e+07 1.94981e+07 1.95091e+07 1.95198e+07 1.95302e+07 1.92322e+07 1.92506e+07 1.92682e+07 1.92854e+07
          1.93023e+07 1.9319e+07 1.93357e+07 1.93538e+07 1.93748e+07 1.93957e+07 1.9408e+07 1.94206e+07 1.94331e+07 1.94453e+07 1.94572e+07 1.94686e+07
          1.94797e+07 1.94904e+07 1.95007e+07
        </DataArray>
        <DataArray type="Float32" Name="rho_liq" NumberOfComponents="1" format="ascii">
          1000 1000 1000 1000 1000 1000 1000 1000 1000 1000 1000 1000
          1000 1000 1000 1000 1000 1000 1000 1000 1000 1000 1000 1000
          1000 1000 1000 1000 1000 1000 1000 1000 1000 1000 1000 1000
          1000 1000 1000 1000 1000 1000 1000 1000 1000 1000 1000 1000
          1000 1000 1000 1000 1000 1000 1000 1000 1000 1000 1000 1000
          1000 1000 1000 1000 1000 1000 1000 1000 1000 1000 1000 1000
[...]
      <CellData Scalars="process rank">
        <DataArray type="Float32" Name="process rank" NumberOfComponents="1" format="ascii">
          1 1 1 1 1 1 1 1 1 1 1 1
          1 1 1 1 1 1 1 1 1 1 1 1
          1 1 1 1 1 1 1 1 1 1 1 1
          1 1 1 1 1 1 1 1 1 1 1 1
          1 1 1 1 1 1 1 1 1 1 1 1
          1 1 1 1 1 1 1 1 1 1 1 1
          1 1 1 1 1 1 1 1 1 1 1 1
          1 1 1 1 1 1 1 1 1 1 1 1
          1 1 1 1 1 1 1 1 1 1 1 1
          1 1 1 1 1 1 1 1 1 1 1 1
          1 1 1 1 1 1 1 1 1 1 1 1
          1 1 1 1 1 1 1 1 1 1 1 1
          1 1 1 1 1 1 1 1 1 1 1 1
          1 1 1 1 1 1 1 1 1 1 1 1
          1 1 1 1 1 1 1 1 1 1 1 1
          1 1 1 1 1 1 1 1 1 1 1 1
          1 1 1 1 1 1 1 1 1 1 1 1
          1 1 1 1 1 1 1 1 1 1 1 1
          1 1 1 1 1 1 1 1 1 1 1 1
          1 1 1 1 1 1 1 1 1 1 1 1
          1 1 1 1 1 1 1 1 1 1 1 1
          1 1 1 1 1 1 1 1 1 1 1 1
          1 1 1 1 1 1 1 1 1 1 1 1
          1 1 1 1 1 1 1 1 1 1 1 1
          1 1 1 1 1 1 1 1 1 1 1 1
          1 1 1 1 1 1 1 1 1 1 1 1
          1 1 1 1 1 1 1 1 1 1 1 1
          1 1 1 1 1 1 1 1 1 1 1 1
          1 1 1 1 1 1 1 1 1 1 1 1
          1 1 1 1 1 1 1 1 1 1 1 1
        </DataArray>
      </CellData>
      <Points>
        <DataArray type="Float32" Name="Coordinates" NumberOfComponents="3" format="ascii">
          120.2 0 0 126.867 0 0 120.2 3 0 126.867 3 0
          133.533 0 0 133.533 3 0 140.2 0 0 140.2 3 0
          146.867 0 0 146.867 3 0 153.533 0 0 153.533 3 0
          160.2 0 0 160.2 3 0 166.867 0 0 166.867 3 0
          173.533 0 0 173.533 3 0 180.2 0 0 180.2 3 0
          186.867 0 0 186.867 3 0 193.533 0 0 193.533 3 0
          200.2 0 0 200.2 3 0 206.867 0 0 206.867 3 0
          213.533 0 0 213.533 3 0 220.2 0 0 220.2 3 0
          226.867 0 0 226.867 3 0 233.533 0 0 233.533 3 0
          240.2 0 0 240.2 3 0 120.2 6 0 126.867 6 0
          133.533 6 0 140.2 6 0 146.867 6 0 153.533 6 0
          160.2 6 0 166.867 6 0 173.533 6 0 180.2 6 0
          186.867 6 0 193.533 6 0 200.2 6 0 206.867 6 0
          213.533 6 0 220.2 6 0 226.867 6 0 233.533 6 0
          240.2 6 0 120.2 9 0 126.867 9 0 133.533 9 0
          140.2 9 0 146.867 9 0 153.533 9 0 160.2 9 0
          166.867 9 0 173.533 9 0 180.2 9 0 186.867 9 0
          193.533 9 0 200.2 9 0 206.867 9 0 213.533 9 0
          220.2 9 0 226.867 9 0 233.533 9 0 240.2 9 0
          120.2 12 0 126.867 12 0 133.533 12 0 140.2 12 0
          146.867 12 0 153.533 12 0 160.2 12 0 166.867 12 0
          173.533 12 0 180.2 12 0 186.867 12 0 193.533 12 0
          200.2 12 0 206.867 12 0 213.533 12 0 220.2 12 0
          226.867 12 0 233.533 12 0 240.2 12 0 120.2 15 0
          126.867 15 0 133.533 15 0 140.2 15 0 146.867 15 0
          153.533 15 0 160.2 15 0 166.867 15 0 173.533 15 0
          180.2 15 0 186.867 15 0 193.533 15 0 200.2 15 0
          206.867 15 0 213.533 15 0 220.2 15 0 226.867 15 0
          233.533 15 0 240.2 15 0 120.2 18 0 126.867 18 0
          133.533 18 0 140.2 18 0 146.867 18 0 153.533 18 0
          160.2 18 0 166.867 18 0 173.533 18 0 180.2 18 0
          186.867 18 0 193.533 18 0 200.2 18 0 206.867 18 0
          213.533 18 0 220.2 18 0 226.867 18 0 233.533 18 0
          240.2 18 0 120.2 21 0 126.867 21 0 133.533 21 0
          140.2 21 0 146.867 21 0 153.533 21 0 160.2 21 0
          166.867 21 0 173.533 21 0 180.2 21 0 186.867 21 0
          193.533 21 0 200.2 21 0 206.867 21 0 213.533 21 0
          220.2 21 0 226.867 21 0 233.533 21 0 240.2 21 0
          120.2 24 0 126.867 24 0 133.533 24 0 140.2 24 0
          146.867 24 0 153.533 24 0 160.2 24 0 166.867 24 0
          173.533 24 0 180.2 24 0 186.867 24 0 193.533 24 0
          200.2 24 0 206.867 24 0 213.533 24 0 220.2 24 0
          226.867 24 0 233.533 24 0 240.2 24 0 120.2 27 0
          126.867 27 0 133.533 27 0 140.2 27 0 146.867 27 0
          153.533 27 0 160.2 27 0 166.867 27 0 173.533 27 0
          180.2 27 0 186.867 27 0 193.533 27 0 200.2 27 0
          206.867 27 0 213.533 27 0 220.2 27 0 226.867 27 0
          233.533 27 0 240.2 27 0 120.2 30 0 126.867 30 0
          133.533 30 0 140.2 30 0 146.867 30 0 153.533 30 0
          160.2 30 0 166.867 30 0 173.533 30 0 180.2 30 0
          186.867 30 0 193.533 30 0 200.2 30 0 206.867 30 0
          213.533 30 0 220.2 30 0 226.867 30 0 233.533 30 0
          240.2 30 0 120.2 33 0 126.867 33 0 133.533 33 0
          140.2 33 0 146.867 33 0 153.533 33 0 160.2 33 0
          166.867 33 0 173.533 33 0 180.2 33 0 186.867 33 0
          193.533 33 0 200.2 33 0 206.867 33 0 213.533 33 0
          220.2 33 0 226.867 33 0 233.533 33 0 240.2 33 0
          120.2 36 0 126.867 36 0 133.533 36 0 140.2 36 0
          146.867 36 0 153.533 36 0 160.2 36 0 166.867 36 0
          173.533 36 0 180.2 36 0 186.867 36 0 193.533 36 0
          200.2 36 0 206.867 36 0 213.533 36 0 220.2 36 0
          226.867 36 0 233.533 36 0 240.2 36 0 120.2 39 0
          126.867 39 0 133.533 39 0 140.2 39 0 146.867 39 0
          153.533 39 0 160.2 39 0 166.867 39 0 173.533 39 0
          180.2 39 0 186.867 39 0 193.533 39 0 200.2 39 0
          206.867 39 0 213.533 39 0 220.2 39 0 226.867 39 0
          233.533 39 0 240.2 39 0 120.2 42 0 126.867 42 0
          133.533 42 0 140.2 42 0 146.867 42 0 153.533 42 0
          160.2 42 0 166.867 42 0 173.533 42 0 180.2 42 0
          186.867 42 0 193.533 42 0 200.2 42 0 206.867 42 0
          213.533 42 0 220.2 42 0 226.867 42 0 233.533 42 0
          240.2 42 0 120.2 45 0 126.867 45 0 133.533 45 0
          140.2 45 0 146.867 45 0 153.533 45 0 160.2 45 0
          166.867 45 0 173.533 45 0 180.2 45 0 186.867 45 0
          193.533 45 0 200.2 45 0 206.867 45 0 213.533 45 0
          220.2 45 0 226.867 45 0 233.533 45 0 240.2 45 0
          120.2 48 0 126.867 48 0 133.533 48 0 140.2 48 0
          146.867 48 0 153.533 48 0 160.2 48 0 166.867 48 0
          173.533 48 0 180.2 48 0 186.867 48 0 193.533 48 0
          200.2 48 0 206.867 48 0 213.533 48 0 220.2 48 0
          226.867 48 0 233.533 48 0 240.2 48 0 120.2 51 0
          126.867 51 0 133.533 51 0 140.2 51 0 146.867 51 0
          153.533 51 0 160.2 51 0 166.867 51 0 173.533 51 0
          180.2 51 0 186.867 51 0 193.533 51 0 200.2 51 0
          206.867 51 0 213.533 51 0 220.2 51 0 226.867 51 0
          233.533 51 0 240.2 51 0 120.2 54 0 126.867 54 0
          133.533 54 0 140.2 54 0 146.867 54 0 153.533 54 0
          160.2 54 0 166.867 54 0 173.533 54 0 180.2 54 0
          186.867 54 0 193.533 54 0 200.2 54 0 206.867 54 0
          213.533 54 0 220.2 54 0 226.867 54 0 233.533 54 0
          240.2 54 0 120.2 57 0 126.867 57 0 133.533 57 0
          140.2 57 0 146.867 57 0 153.533 57 0 160.2 57 0
          166.867 57 0 173.533 57 0 180.2 57 0 186.867 57 0
          193.533 57 0 200.2 57 0 206.867 57 0 213.533 57 0
          220.2 57 0 226.867 57 0 233.533 57 0 240.2 57 0
          120.2 60 0 126.867 60 0 133.533 60 0 140.2 60 0
          146.867 60 0 153.533 60 0 160.2 60 0 166.867 60 0
          173.533 60 0 180.2 60 0 186.867 60 0 193.533 60 0
          200.2 60 0 206.867 60 0 213.533 60 0 220.2 60 0
          226.867 60 0 233.533 60 0 240.2 60 0
        </DataArray>
      </Points>
      <Cells>
        <DataArray type="Int32" Name="connectivity" NumberOfComponents="1" format="ascii">
          0 1 3 2 1 4 5 3 4 6 7 5
          6 8 9 7 8 10 11 9 10 12 13 11
          12 14 15 13 14 16 17 15 16 18 19 17
          18 20 21 19 20 22 23 21 22 24 25 23
          24 26 27 25 26 28 29 27 28 30 31 29
          30 32 33 31 32 34 35 33 34 36 37 35
          2 3 39 38 3 5 40 39 5 7 41 40
          7 9 42 41 9 11 43 42 11 13 44 43
          13 15 45 44 15 17 46 45 17 19 47 46
          19 21 48 47 21 23 49 48 23 25 50 49
          25 27 51 50 27 29 52 51 29 31 53 52
          31 33 54 53 33 35 55 54 35 37 56 55
          38 39 58 57 39 40 59 58 40 41 60 59
          41 42 61 60 42 43 62 61 43 44 63 62
          44 45 64 63 45 46 65 64 46 47 66 65
          47 48 67 66 48 49 68 67 49 50 69 68
          50 51 70 69 51 52 71 70 52 53 72 71
          53 54 73 72 54 55 74 73 55 56 75 74
          57 58 77 76 58 59 78 77 59 60 79 78
          60 61 80 79 61 62 81 80 62 63 82 81
          63 64 83 82 64 65 84 83 65 66 85 84
          66 67 86 85 67 68 87 86 68 69 88 87
          69 70 89 88 70 71 90 89 71 72 91 90
          72 73 92 91 73 74 93 92 74 75 94 93
          76 77 96 95 77 78 97 96 78 79 98 97
          79 80 99 98 80 81 100 99 81 82 101 100
          82 83 102 101 83 84 103 102 84 85 104 103
          85 86 105 104 86 87 106 105 87 88 107 106
          88 89 108 107 89 90 109 108 90 91 110 109
          91 92 111 110 92 93 112 111 93 94 113 112
          95 96 115 114 96 97 116 115 97 98 117 116
          98 99 118 117 99 100 119 118 100 101 120 119
          101 102 121 120 102 103 122 121 103 104 123 122
          104 105 124 123 105 106 125 124 106 107 126 125
          107 108 127 126 108 109 128 127 109 110 129 128
          110 111 130 129 111 112 131 130 112 113 132 131
          114 115 134 133 115 116 135 134 116 117 136 135
          117 118 137 136 118 119 138 137 119 120 139 138
          120 121 140 139 121 122 141 140 122 123 142 141
          123 124 143 142 124 125 144 143 125 126 145 144
          126 127 146 145 127 128 147 146 128 129 148 147
          129 130 149 148 130 131 150 149 131 132 151 150
          133 134 153 152 134 135 154 153 135 136 155 154
          136 137 156 155 137 138 157 156 138 139 158 157
          139 140 159 158 140 141 160 159 141 142 161 160
          142 143 162 161 143 144 163 162 144 145 164 163
          145 146 165 164 146 147 166 165 147 148 167 166
          148 149 168 167 149 150 169 168 150 151 170 169
          152 153 172 171 153 154 173 172 154 155 174 173
          155 156 175 174 156 157 176 175 157 158 177 176
          158 159 178 177 159 160 179 178 160 161 180 179
          161 162 181 180 162 163 182 181 163 164 183 182
          164 165 184 183 165 166 185 184 166 167 186 185
          167 168 187 186 168 169 188 187 169 170 189 188
          171 172 191 190 172 173 192 191 173 174 193 192
          174 175 194 193 175 176 195 194 176 177 196 195
          177 178 197 196 178 179 198 197 179 180 199 198
          180 181 200 199 181 182 201 200 182 183 202 201
          183 184 203 202 184 185 204 203 185 186 205 204
          186 187 206 205 187 188 207 206 188 189 208 207
          190 191 210 209 191 192 211 210 192 193 212 211
          193 194 213 212 194 195 214 213 195 196 215 214
          196 197 216 215 197 198 217 216 198 199 218 217
          199 200 219 218 200 201 220 219 201 202 221 220
          202 203 222 221 203 204 223 222 204 205 224 223
          205 206 225 224 206 207 226 225 207 208 227 226
          209 210 229 228 210 211 230 229 211 212 231 230
          212 213 232 231 213 214 233 232 214 215 234 233
          215 216 235 234 216 217 236 235 217 218 237 236
          218 219 238 237 219 220 239 238 220 221 240 239
          221 222 241 240 222 223 242 241 223 224 243 242
          224 225 244 243 225 226 245 244 226 227 246 245
          228 229 248 247 229 230 249 248 230 231 250 249
          231 232 251 250 232 233 252 251 233 234 253 252
          234 235 254 253 235 236 255 254 236 237 256 255
          237 238 257 256 238 239 258 257 239 240 259 258
          240 241 260 259 241 242 261 260 242 243 262 261
          243 244 263 262 244 245 264 263 245 246 265 264
          247 248 267 266 248 249 268 267 249 250 269 268
          250 251 270 269 251 252 271 270 252 253 272 271
          253 254 273 272 254 255 274 273 255 256 275 274
          256 257 276 275 257 258 277 276 258 259 278 277
          259 260 279 278 260 261 280 279 261 262 281 280
          262 263 282 281 263 264 283 282 264 265 284 283
          266 267 286 285 267 268 287 286 268 269 288 287
          269 270 289 288 270 271 290 289 271 272 291 290
          272 273 292 291 273 274 293 292 274 275 294 293
          275 276 295 294 276 277 296 295 277 278 297 296
          278 279 298 297 279 280 299 298 280 281 300 299
          281 282 301 300 282 283 302 301 283 284 303 302
          285 286 305 304 286 287 306 305 287 288 307 306
          288 289 308 307 289 290 309 308 290 291 310 309
          291 292 311 310 292 293 312 311 293 294 313 312
          294 295 314 313 295 296 315 314 296 297 316 315
          297 298 317 316 298 299 318 317 299 300 319 318
          300 301 320 319 301 302 321 320 302 303 322 321
          304 305 324 323 305 306 325 324 306 307 326 325
          307 308 327 326 308 309 328 327 309 310 329 328
          310 311 330 329 311 312 331 330 312 313 332 331
          313 314 333 332 314 315 334 333 315 316 335 334
          316 317 336 335 317 318 337 336 318 319 338 337
          319 320 339 338 320 321 340 339 321 322 341 340
          323 324 343 342 324 325 344 343 325 326 345 344
          326 327 346 345 327 328 347 346 328 329 348 347
          329 330 349 348 330 331 350 349 331 332 351 350
          332 333 352 351 333 334 353 352 334 335 354 353
          335 336 355 354 336 337 356 355 337 338 357 356
          338 339 358 357 339 340 359 358 340 341 360 359
          342 343 362 361 343 344 363 362 344 345 364 363
          345 346 365 364 346 347 366 365 347 348 367 366
          348 349 368 367 349 350 369 368 350 351 370 369
          351 352 371 370 352 353 372 371 353 354 373 372
          354 355 374 373 355 356 375 374 356 357 376 375
          357 358 377 376 358 359 378 377 359 360 379 378
          361 362 381 380 362 363 382 381 363 364 383 382
          364 365 384 383 365 366 385 384 366 367 386 385
          367 368 387 386 368 369 388 387 369 370 389 388
          370 371 390 389 371 372 391 390 372 373 392 391
          373 374 393 392 374 375 394 393 375 376 395 394
          376 377 396 395 377 378 397 396 378 379 398 397
        </DataArray>
        <DataArray type="Int32" Name="offsets" NumberOfComponents="1" format="ascii">
          4 8 12 16 20 24 28 32 36 40 44 48
          52 56 60 64 68 72 76 80 84 88 92 96
          100 104 108 112 116 120 124 128 132 136 140 144
          148 152 156 160 164 168 172 176 180 184 188 192
          196 200 204 208 212 216 220 224 228 232 236 240
          244 248 252 256 260 264 268 272 276 280 284 288
          292 296 300 304 308 312 316 320 324 328 332 336
          340 344 348 352 356 360 364 368 372 376 380 384
          388 392 396 400 404 408 412 416 420 424 428 432
          436 440 444 448 452 456 460 464 468 472 476 480
          484 488 492 496 500 504 508 512 516 520 524 528
          532 536 540 544 548 552 556 560 564 568 572 576
          580 584 588 592 596 600 604 608 612 616 620 624
          628 632 636 640 644 648 652 656 660 664 668 672
          676 680 684 688 692 696 700 704 708 712 716 720
          724 728 732 736 740 744 748 752 756 760 764 768
          772 776 780 784 788 792 796 800 804 808 812 816
          820 824 828 832 836 840 844 848 852 856 860 864
          868 872 876 880 884 888 892 896 900 904 908 912
          916 920 924 928 932 936 940 944 948 952 956 960
          964 968 972 976 980 984 988 992 996 1000 1004 1008
          1012 1016 1020 1024 1028 1032 1036 1040 1044 1048 1052 1056
          1060 1064 1068 1072 1076 1080 1084 1088 1092 1096 1100 1104
          1108 1112 1116 1120 1124 1128 1132 1136 1140 1144 1148 1152
          1156 1160 1164 1168 1172 1176 1180 1184 1188 1192 1196 1200
          1204 1208 1212 1216 1220 1224 1228 1232 1236 1240 1244 1248
          1252 1256 1260 1264 1268 1272 1276 1280 1284 1288 1292 1296
          1300 1304 1308 1312 1316 1320 1324 1328 1332 1336 1340 1344
          1348 1352 1356 1360 1364 1368 1372 1376 1380 1384 1388 1392
          1396 1400 1404 1408 1412 1416 1420 1424 1428 1432 1436 1440
        </DataArray>
        <DataArray type="UInt8" Name="types" NumberOfComponents="1" format="ascii">
          9 9 9 9 9 9 9 9 9 9 9 9
          9 9 9 9 9 9 9 9 9 9 9 9
          9 9 9 9 9 9 9 9 9 9 9 9
          9 9 9 9 9 9 9 9 9 9 9 9
          9 9 9 9 9 9 9 9 9 9 9 9
          9 9 9 9 9 9 9 9 9 9 9 9
          9 9 9 9 9 9 9 9 9 9 9 9
          9 9 9 9 9 9 9 9 9 9 9 9
          9 9 9 9 9 9 9 9 9 9 9 9
          9 9 9 9 9 9 9 9 9 9 9 9
          9 9 9 9 9 9 9 9 9 9 9 9
          9 9 9 9 9 9 9 9 9 9 9 9
          9 9 9 9 9 9 9 9 9 9 9 9
          9 9 9 9 9 9 9 9 9 9 9 9
          9 9 9 9 9 9 9 9 9 9 9 9
          9 9 9 9 9 9 9 9 9 9 9 9
          9 9 9 9 9 9 9 9 9 9 9 9
          9 9 9 9 9 9 9 9 9 9 9 9
          9 9 9 9 9 9 9 9 9 9 9 9
          9 9 9 9 9 9 9 9 9 9 9 9
          9 9 9 9 9 9 9 9 9 9 9 9
          9 9 9 9 9 9 9 9 9 9 9 9
          9 9 9 9 9 9 9 9 9 9 9 9
          9 9 9 9 9 9 9 9 9 9 9 9
          9 9 9 9 9 9 9 9 9 9 9 9
          9 9 9 9 9 9 9 9 9 9 9 9
          9 9 9 9 9 9 9 9 9 9 9 9
          9 9 9 9 9 9 9 9 9 9 9 9
          9 9 9 9 9 9 9 9 9 9 9 9
          9 9 9 9 9 9 9 9 9 9 9 9
        </DataArray>
      </Cells>
    </Piece>
  </UnstructuredGrid>
</VTKFile>
