<?xml version="1.0"?>
<VTKFile type="UnstructuredGrid" version="0.1" byte_order="LittleEndian">
  <UnstructuredGrid>
    <Piece NumberOfCells="1280" NumberOfPoints="1700">
      <PointData Scalars="S_liq" Vectors="velocity_liq (m/s)">
        <DataArray type="Float32" Name="S_liq" NumberOfComponents="1" format="ascii">
          0.2601 0.2601 0.2601 0.2601 0.2601 0.2601 0.2601 0.2601 0.2601 0.2601 0.2601 0.2601
          0.2601 0.2601 0.2601 0.2601 0.2601 0.2601 0.2601 0.2601 0.2601 0.2601 0.2601 0.2601
          0.2601 0.2601 0.2601 0.2601 0.2601 0.2601 0.2601 0.2601 0.2601 0.2601 0.2601 0.2601
          0.2601 0.2601 0.2601 0.2601 0.2601 0.2601 0.2601 0.2601 0.2601 0.2601 0.2601 0.2601
          0.2601 0.2601 0.2601 0.2601 0.2601 0.2601 0.2601 0.2601 0.2601 0.2601 0.2601 0.2601
          0.2601 0.2601 0.2601 0.2601 0.2601 0.2601 0.2601 0.2601 0.2601 0.2601 0.2601 0.2601
          0.2601 0.2601 0.2601 0.2601 0.2601 0.2601 0.2601 0.2601 0.2601 0.2601 0.2601 0.2601
          0.2601 0.2601 0.2601 0.2601 0.2601 0.2601 0.2601 0.2601 0.2601 0.2601 0.2601 0.2601
          0.2601 0.2601 0.2601 0.2601 0.2601 0.2601 0.2601 0.2601 0.2601 0.2601 0.2601 0.2601
          0.2601 0.2601 0.2601 0.2601 0.2601 0.2601 0.2601 0.2601 0.2601 0.2601 0.2601 0.2601
          0.2601 0.2601 0.2601 0.2601 0.2601 0.2601 0.2601 0.2601 0.2601 0.2601 0.2601 0.2601
          0.2601 0.2601 0.2601 0.2601 0.2601 0.2601 0.2601 0.2601 0.2601 0.2601 0.2601 0.2601
          0.2601 0.2601 0.2601 0.2601 0.2601 0.2601 0.2601 0.2601 0.2601 0.2601 0.2601 0.2601
          0.2601 0.2601 0.2601 0.2601 0.2601 0.2601 0.2601 0.2601 0.2601 0.2601 0.2601 0.2601
          0.2601 0.2601 0.2601 0.2601 0.2601 0.2601 0.2601 0.2601 0.2601 0.2601 0.2601 0.2601
          0.2601 0.2601 0.2601 0.2601 0.2601 0.2601 0.2601 0.2601 0.2601 0.2601 0.2601 0.2601
          0.2601 0.2601 0.2601 0.2601 0.2601 0.2601 0.2601 0.2601 0.2601 0.2601 0.2601 0.2601
          0.2601 0.2601 0.2601 0.2601 0.2601 0.2601 0.2601 0.2601 0.2601 0.2601 0.2601 0.2601
          0.2601 0.2601 0.2601 0.2601 0.2601 0.2601 0.2601 0.2601 0.2601 0.2601 0.2601 0.2601
          0.2601 0.2601 0.2601 0.2601 0.2601 0.2601 0.2601 0.2601 0.2601 0.2601 0.2601 0.2601
          0.2601 0.2601 0.2601 0.2601 0.2601 0.2601 0.2601 0.2601 0.2601 0.2601 0.2601 0.2601
          0.2601 0.2601 0.2601 0.2601 0.2601 0.2601 0.2601 0.2601 0.2601 0.2601 0.2601 0.2601
          0.2601 0.2601 0.2601 0.2601 0.2601 0.2601 0.2601 0.2601 0.2601 0.2601 0.2601 0.2601
          0.2601 0.2601 0.2601 0.2601 0.2601 0.2601 0.2601 0.2601 0.2601 0.2601 0.2601 0.2601
          0.2601 0.2601 0.2601 0.2601 0.2601 0.2601 0.2601 0.2601 0.2601 0.2601 0.2601 0.2601
          0.2601 0.2601 0.2601 0.2601 0.2601 0.2601 0.2601 0.2601 0.2601 0.2601 0.2601 0.2601
          0.2601 0.2601 0.2601 0.2601 0.2601 0.2601 0.2601 0.2601 0.2601 0.2601 0.2601 0.2601
          0.2601 0.2601 0.2601 0.2601 0.2601 0.2601 0.2601 0.2601 0.2601 0.2601 0.2601 0.2601
          0.2601 0.2601 0.2601 0.2601 0.2601 0.2601 0.2601 0.2601 0.2601 0.2601 0.2601 0.2601
          0.2601 0.2601 0.2601 0.2601 0.2601 0.2601 0.2601 0.2601 0.2601 0.2601 0.2601 0.2601
          0.2601 0.2601 0.2601 0.2601 0.2601 0.2601 0.2601 0.2601 0.2601 0.2601 0.2601 0.2601
          0.2601 0.2601 0.2601 0.2601 0.2601 0.2601 0.2601 0.2601 0.2601 0.2601 0.2601 0.2601
          0.2601 0.2601 0.2601 0.2601 0.2601 0.2601 0.2601 0.2601 0.2601 0.2601 0.2601 0.2601
          0.2601 0.2601 0.2601 0.2601 0.2601 0.2601 0.2601 0.2601 0.2601 0.2601 0.2601 0.2601
          0.2601 0.2601 0.2601 0.2601 0.2601 0.2601 0.2601 0.2601 0.2601 0.2601 0.2601 0.2601
          0.2601 0.2601 0.2601 0.2601 0.2601 0.2601 0.2601 0.2601 0.2601 0.2601 0.2601 0.2601
          0.2601 0.2601 0.2601 0.2601 0.2601 0.2601 0.2601 0.2601 0.2601 0.2601 0.2601 0.2601
          0.2601 0.2601 0.2601 0.2601 0.2601 0.2601 0.2601 0.2601 0.2601 0.2601 0.2601 0.2601
          0.2601 0.2601 0.2601 0.2601 0.2601 0.2601 0.2601 0.2601 0.2601 0.2601 0.2601 0.2601
          0.2601 0.2601 0.2601 0.2601 0.2601 0.2601 0.2601 0.2601 0.2601 0.2601 0.2601 0.2601
          0.2601 0.2601 0.2601 0.2601 0.2601 0.2601 0.2601 0.2601 0.2601 0.2601 0.2601 0.2601
          0.2601 0.2601 0.2601 0.2601 0.2601 0.2601 0.2601 0.2601 0.2601 0.2601 0.2601 0.2601
          0.2601 0.2601 0.2601 0.2601 0.2601 0.2601 0.2601 0.2601 0.2601 0.2601 0.2601 0.2601
          0.2601 0.2601 0.2601 0.2601 0.2601 0.2601 0.2601 0.2601 0.2601 0.2601 0.2601 0.2601
          0.2601 0.2601 0.2601 0.2601 0.2601 0.2601 0.2601 0.2601 0.2601 0.2601 0.2601 0.2601
          0.2601 0.2601 0.2601 0.2601 0.2601 0.2601 0.2601 0.2601 0.2601 0.2601 0.2601 0.2601
          0.2601 0.2601 0.2601 0.2601 0.2601 0.2601 0.2601 0.2601 0.2601 0.2601 0.2601 0.2601
          0.2601 0.2601 0.2601 0.2601 0.2601 0.2601 0.2601 0.2601 0.2601 0.2601 0.2601 0.2601
          0.2601 0.2601 0.2601 0.2601 0.2601 0.2601 0.2601 0.2601 0.2601 0.2601 0.2601 0.2601
          0.2601 0.2601 0.2601 0.2601 0.2601 0.2601 0.2601 0.2601 0.2601 0.2601 0.2601 0.2601
          0.2601 0.2601 0.2601 0.2601 0.2601 0.2601 0.2601 0.2601 0.2601 0.2601 0.2601 0.2601
          0.2601 0.2601 0.2601 0.2601 0.2601 0.2601 0.2601 0.2601 0.2601 0.2601 0.2601 0.2601
          0.2601 0.2601 0.2601 0.2601 0.2601 0.2601 0.2601 0.2601 0.2601 0.2601 0.2601 0.2601
          0.2601 0.2601 0.2601 0.2601 0.2601 0.2601 0.2601 0.2601 0.2601 0.2601 0.2601 0.2601
          0.2601 0.2601 0.2601 0.2601 0.2601 0.2601 0.2601 0.2601 0.2601 0.2601 0.2601 0.2601
          0.2601 0.2601 0.2601 0.2601 0.2601 0.2601 0.2601 0.2601 0.2601 0.2601 0.2601 0.2601
          0.2601 0.2601 0.2601 0.2601 0.2601 0.2601 0.2601 0.2601 0.2601 0.2601 0.2601 0.2601
          0.2601 0.2601 0.2601 0.2601 0.2601 0.2601 0.2601 0.2601 0.2601 0.2601 0.2601 0.2601
          0.2601 0.2601 0.2601 0.2601 0.2601 0.2601 0.2601 0.2601 0.2601 0.2601 0.2601 0.2601
          0.2601 0.2601 0.2601 0.2601 0.2601 0.2601 0.2601 0.2601 0.2601 0.2601 0.2601 0.2601
          0.2601 0.2601 0.2601 0.2601 0.2601 0.2601 0.2601 0.2601 0.2601 0.2601 0.2601 0.2601
          0.2601 0.2601 0.2601 0.2601 0.2601 0.2601 0.2601 0.2601 0.2601 0.2601 0.2601 0.2601
          0.2601 0.2601 0.2601 0.2601 0.2601 0.2601 0.2601 0.2601 0.2601 0.2601 0.2601 0.2601
          0.2601 0.2601 0.2601 0.2601 0.2601 0.2601 0.2601 0.2601 0.2601 0.2601 0.2601 0.2601
          0.2601 0.2601 0.2601 0.2601 0.2601 0.2601 0.2601 0.2601 0.2601 0.2601 0.2601 0.2601
          0.2601 0.2601 0.2601 0.2601 0.2601 0.2601 0.2601 0.2601 0.2601 0.2601 0.2601 0.2601
          0.2601 0.2601 0.2601 0.2601 0.2601 0.2601 0.2601 0.2601 0.2601 0.2601 0.2601 0.2601
          0.2601 0.2601 0.2601 0.2601 0.2601 0.2601 0.2601 0.2601 0.2601 0.2601 0.2601 0.2601
          0.2601 0.2601 0.2601 0.2601 0.2601 0.2601 0.2601 0.2601 0.2601 0.2601 0.2601 0.2601
          0.2601 0.2601 0.2601 0.2601 0.2601 0.2601 0.2601 0.2601 0.2601 0.2601 0.2601 0.2601
          0.2601 0.2601 0.2601 0.2601 0.2601 0.2601 0.2601 0.2601 0.2601 0.2601 0.2601 0.2601
          0.2601 0.2601 0.2601 0.2601 0.2601 0.2601 0.2601 0.2601 0.2601 0.2601 0.2601 0.2601
          0.2601 0.2601 0.2601 0.2601 0.2601 0.2601 0.2601 0.2601 0.2601 0.2601 0.2601 0.2601
          0.2601 0.2601 0.2601 0.2601 0.2601 0.2601 0.2601 0.2601 0.2601 0.2601 0.2601 0.2601
          0.2601 0.2601 0.2601 0.2601 0.2601 0.2601 0.2601 0.2601 0.2601 0.2601 0.2601 0.2601
          0.2601 0.2601 0.2601 0.2601 0.2601 0.2601 0.2601 0.2601 0.2601 0.2601 0.2601 0.2601
          0.2601 0.2601 0.2601 0.2601 0.2601 0.2601 0.2601 0.2601 0.2601 0.2601 0.2601 0.2601
          0.2601 0.2601 0.2601 0.2601 0.2601 0.2601 0.2601 0.2601 0.2601 0.2601 0.2601 0.2601
          0.2601 0.2601 0.2601 0.2601 0.2601 0.2601 0.2601 0.2601 0.2601 0.2601 0.2601 0.2601
          0.2601 0.2601 0.2601 0.2601 0.2601 0.2601 0.2601 0.2601 0.2601 0.2601 0.2601 0.2601
          0.2601 0.2601 0.2601 0.2601 0.2601 0.2601 0.2601 0.2601 0.2601 0.2601 0.2601 0.2601
          0.2601 0.2601 0.2601 0.2601 0.2601 0.2601 0.2601 0.2601 0.2601 0.2601 0.2601 0.2601
          0.2601 0.2601 0.2601 0.2601 0.2601 0.2601 0.2601 0.2601 0.2601 0.2601 0.2601 0.2601
          0.2601 0.2601 0.2601 0.2601 0.2601 0.2601 0.2601 0.2601 0.2601 0.2601 0.2601 0.2601
          0.2601 0.2601 0.2601 0.2601 0.2601 0.2601 0.2601 0.2601 0.2601 0.2601 0.2601 0.2601
          0.2601 0.2601 0.2601 0.2601 0.2601 0.2601 0.2601 0.2601 0.2601 0.2601 0.2601 0.2601
          0.2601 0.2601 0.2601 0.2601 0.2601 0.2601 0.2601 0.2601 0.2601 0.2601 0.2601 0.2601
          0.2601 0.2601 0.2601 0.2601 0.2601 0.2601 0.2601 0.2601 0.2601 0.2601 0.2601 0.2601
          0.2601 0.2601 0.2601 0.2601 0.2601 0.2601 0.2601 0.2601 0.2601 0.2601 0.2601 0.2601
          0.2601 0.2601 0.2601 0.2601 0.2601 0.2601 0.2601 0.2601 0.2601 0.2601 0.2601 0.2601
          0.2601 0.2601 0.2601 0.2601 0.2601 0.2601 0.2601 0.2601 0.2601 0.2601 0.2601 0.2601
          0.2601 0.2601 0.2601 0.2601 0.2601 0.2601 0.2601 0.2601 0.2601 0.2601 0.2601 0.2601
          0.2601 0.2601 0.2601 0.2601 0.2601 0.2601 0.2601 0.2601 0.2601 0.2601 0.2601 0.2601
          0.2601 0.2601 0.2601 0.2601 0.2601 0.2601 0.2601 0.2601 0.2601 0.2601 0.2601 0.2601
          0.2601 0.2601 0.2601 0.2601 0.2601 0.2601 0.2601 0.2601 0.2601 0.2601 0.2601 0.2601
          0.2601 0.2601 0.2601 0.2601 0.2601 0.2601 0.2601 0.2601 0.2601 0.2601 0.2601 0.2601
          0.2601 0.2601 0.2601 0.2601 0.2601 0.2601 0.2601 0.2601 0.2601 0.2601 0.2601 0.2601
          0.2601 0.2601 0.2601 0.2601 0.2601 0.2601 0.2601 0.2601 0.2601 0.2601 0.2601 0.2601
          0.2601 0.2601 0.2601 0.2601 0.2601 0.2601 0.2601 0.2601 0.2601 0.2601 0.2601 0.2601
          0.2601 0.2601 0.2601 0.2601 0.2601 0.2601 0.2601 0.2601 0.2601 0.2601 0.2601 0.2601
          0.2601 0.2601 0.2601 0.2601 0.2601 0.2601 0.2601 0.2601 0.2601 0.2601 0.2601 0.2601
          0.2601 0.2601 0.2601 0.2601 0.2601 0.2601 0.2601 0.2601 0.2601 0.2601 0.2601 0.2601
[...]
      <CellData Scalars="process rank">
        <DataArray type="Float32" Name="process rank" NumberOfComponents="1" format="ascii">
          0 0 0 0 0 0 0 0 0 0 0 0
          0 0 0 0 0 0 0 0 0 0 0 0
          0 0 0 0 0 0 0 0 0 0 0 0
          0 0 0 0 0 0 0 0 0 0 0 0
          0 0 0 0 0 0 0 0 0 0 0 0
          0 0 0 0 0 0 0 0 0 0 0 0
          0 0 0 0 0 0 0 0 0 0 0 0
          0 0 0 0 0 0 0 0 0 0 0 0
          0 0 0 0 0 0 0 0 0 0 0 0
          0 0 0 0 0 0 0 0 0 0 0 0
          0 0 0 0 0 0 0 0 0 0 0 0
          0 0 0 0 0 0 0 0 0 0 0 0
          0 0 0 0 0 0 0 0 0 0 0 0
          0 0 0 0 0 0 0 0 0 0 0 0
          0 0 0 0 0 0 0 0 0 0 0 0
          0 0 0 0 0 0 0 0 0 0 0 0
          0 0 0 0 0 0 0 0 0 0 0 0
          0 0 0 0 0 0 0 0 0 0 0 0
          0 0 0 0 0 0 0 0 0 0 0 0
          0 0 0 0 0 0 0 0 0 0 0 0
          0 0 0 0 0 0 0 0 0 0 0 0
          0 0 0 0 0 0 0 0 0 0 0 0
          0 0 0 0 0 0 0 0 0 0 0 0
          0 0 0 0 0 0 0 0 0 0 0 0
          0 0 0 0 0 0 0 0 0 0 0 0
          0 0 0 0 0 0 0 0 0 0 0 0
          0 0 0 0 0 0 0 0 0 0 0 0
          0 0 0 0 0 0 0 0 0 0 0 0
          0 0 0 0 0 0 0 0 0 0 0 0
          0 0 0 0 0 0 0 0 0 0 0 0
          0 0 0 0 0 0 0 0 0 0 0 0
          0 0 0 0 0 0 0 0 0 0 0 0
          0 0 0 0 0 0 0 0 0 0 0 0
          0 0 0 0 0 0 0 0 0 0 0 0
          0 0 0 0 0 0 0 0 0 0 0 0
          0 0 0 0 0 0 0 0 0 0 0 0
          0 0 0 0 0 0 0 0 0 0 0 0
          0 0 0 0 0 0 0 0 0 0 0 0
          0 0 0 0 0 0 0 0 0 0 0 0
          0 0 0 0 0 0 0 0 0 0 0 0
          0 0 0 0 0 0 0 0 0 0 0 0
          0 0 0 0 0 0 0 0 0 0 0 0
          0 0 0 0 0 0 0 0 0 0 0 0
          0 0 0 0 0 0 0 0 0 0 0 0
          0 0 0 0 0 0 0 0 0 0 0 0
          0 0 0 0 0 0 0 0 0 0 0 0
          0 0 0 0 0 0 0 0 0 0 0 0
          0 0 0 0 0 0 0 0 0 0 0 0
          0 0 0 0 0 0 0 0 0 0 0 0
          0 0 0 0 0 0 0 0 0 0 0 0
          0 0 0 0 0 0 0 0 0 0 0 0
          0 0 0 0 0 0 0 0 0 0 0 0
          0 0 0 0 0 0 0 0 0 0 0 0
          0 0 0 0 0 0 0 0 0 0 0 0
          0 0 0 0 0 0 0 0 0 0 0 0
          0 0 0 0 0 0 0 0 0 0 0 0
          0 0 0 0 0 0 0 0 0 0 0 0
          0 0 0 0 0 0 0 0 0 0 0 0
          0 0 0 0 0 0 0 0 0 0 0 0
          0 0 0 0 0 0 0 0 0 0 0 0
          0 0 0 0 0 0 0 0 0 0 0 0
          0 0 0 0 0 0 0 0 0 0 0 0
          0 0 0 0 0 0 0 0 0 0 0 0
          0 0 0 0 0 0 0 0 0 0 0 0
          0 0 0 0 0 0 0 0 0 0 0 0
          0 0 0 0 0 0 0 0 0 0 0 0
          0 0 0 0 0 0 0 0 0 0 0 0
          0 0 0 0 0 0 0 0 0 0 0 0
          0 0 0 0 0 0 0 0 0 0 0 0
          0 0 0 0 0 0 0 0 0 0 0 0
          0 0 0 0 0 0 0 0 0 0 0 0
          0 0 0 0 0 0 0 0 0 0 0 0
          0 0 0 0 0 0 0 0 0 0 0 0
          0 0 0 0 0 0 0 0 0 0 0 0
          0 0 0 0 0 0 0 0 0 0 0 0
          0 0 0 0 0 0 0 0 0 0 0 0
          0 0 0 0 0 0 0 0 0 0 0 0
          0 0 0 0 0 0 0 0 0 0 0 0
          0 0 0 0 0 0 0 0 0 0 0 0
          0 0 0 0 0 0 0 0 0 0 0 0
          0 0 0 0 0 0 0 0 0 0 0 0
          0 0 0 0 0 0 0 0 0 0 0 0
          0 0 0 0 0 0 0 0 0 0 0 0
          0 0 0 0 0 0 0 0 0 0 0 0
          0 0 0 0 0 0 0 0 0 0 0 0
          0 0 0 0 0 0 0 0 0 0 0 0
          0 0 0 0 0 0 0 0 0 0 0 0
          0 0 0 0 0 0 0 0 0 0 0 0
          0 0 0 0 0 0 0 0 0 0 0 0
          0 0 0 0 0 0 0 0 0 0 0 0
          0 0 0 0 0 0 0 0 0 0 0 0
          0 0 0 0 0 0 0 0 0 0 0 0
          0 0 0 0 0 0 0 0 0 0 0 0
          0 0 0 0 0 0 0 0 0 0 0 0
          0 0 0 0 0 0 0 0 0 0 0 0
          0 0 0 0 0 0 0 0 0 0 0 0
          0 0 0 0 0 0 0 0 0 0 0 0
          0 0 0 0 0 0 0 0 0 0 0 0
          0 0 0 0 0 0 0 0 0 0 0 0
          0 0 0 0 0 0 0 0 0 0 0 0
          0 0 0 0 0 0 0 0 0 0 0 0
          0 0 0 0 0 0 0 0 0 0 0 0
          0 0 0 0 0 0 0 0 0 0 0 0
          0 0 0 0 0 0 0 0 0 0 0 0
          0 0 0 0 0 0 0 0 0 0 0 0
          0 0 0 0 0 0 0 0 0 0 0 0
          0 0 0 0 0 0 0 0
        </DataArray>
      </CellData>
      <Points>
        <DataArray type="Float32" Name="Coordinates" NumberOfComponents="3" format="ascii">
          0.2 0 0 1.4 0 0 0.190211 0.0618034 0 1.33148 0.432624 0
          0.2 0 5.5 1.4 0 5.5 0.190211 0.0618034 5.5 1.33148 0.432624 5.5
          2.6 0 0 2.47275 0.803444 0 2.6 0 5.5 2.47275 0.803444 5.5
          3.8 0 0 3.61401 1.17426 0 3.8 0 5.5 3.61401 1.17426 5.5
          5 0 0 4.75528 1.54508 0 5 0 5.5 4.75528 1.54508 5.5
          8.52774 0 0 8.11037 2.63522 0 8.52774 0 5.5 8.11037 2.63522 5.5
          13.1138 0 0 12.472 4.05239 0 13.1138 0 5.5 12.472 4.05239 5.5
          19.0757 0 0 18.1421 5.89471 0 19.0757 0 5.5 18.1421 5.89471 5.5
          26.8261 0 0 25.5132 8.28974 0 26.8261 0 5.5 25.5132 8.28974 5.5
          36.9017 0 0 35.0956 11.4033 0 36.9017 0 5.5 35.0956 11.4033 5.5
          50 0 0 47.5528 15.4508 0 50 0 5.5 47.5528 15.4508 5.5
          85.2774 0 0 81.1037 26.3522 0 85.2774 0 5.5 81.1037 26.3522 5.5
          131.138 0 0 124.72 40.5239 0 131.138 0 5.5 124.72 40.5239 5.5
          190.757 0 0 181.421 58.9471 0 190.757 0 5.5 181.421 58.9471 5.5
          268.261 0 0 255.132 82.8974 0 268.261 0 5.5 255.132 82.8974 5.5
          369.017 0 0 350.956 114.033 0 369.017 0 5.5 350.956 114.033 5.5
          500 0 0 475.528 154.508 0 500 0 5.5 475.528 154.508 5.5
          0.2 0 11 1.4 0 11 0.190211 0.0618034 11 1.33148 0.432624 11
          2.6 0 11 2.47275 0.803444 11 3.8 0 11 3.61401 1.17426 11
          5 0 11 4.75528 1.54508 11 8.52774 0 11 8.11037 2.63522 11
          13.1138 0 11 12.472 4.05239 11 19.0757 0 11 18.1421 5.89471 11
          26.8261 0 11 25.5132 8.28974 11 36.9017 0 11 35.0956 11.4033 11
          50 0 11 47.5528 15.4508 11 85.2774 0 11 81.1037 26.3522 11
          131.138 0 11 124.72 40.5239 11 190.757 0 11 181.421 58.9471 11
          268.261 0 11 255.132 82.8974 11 369.017 0 11 350.956 114.033 11
          500 0 11 475.528 154.508 11 0.2 0 16.5 1.4 0 16.5
          0.190211 0.0618034 16.5 1.33148 0.432624 16.5 2.6 0 16.5 2.47275 0.803444 16.5
          3.8 0 16.5 3.61401 1.17426 16.5 5 0 16.5 4.75528 1.54508 16.5
          8.52774 0 16.5 8.11037 2.63522 16.5 13.1138 0 16.5 12.472 4.05239 16.5
          19.0757 0 16.5 18.1421 5.89471 16.5 26.8261 0 16.5 25.5132 8.28974 16.5
          36.9017 0 16.5 35.0956 11.4033 16.5 50 0 16.5 47.5528 15.4508 16.5
          85.2774 0 16.5 81.1037 26.3522 16.5 131.138 0 16.5 124.72 40.5239 16.5
          190.757 0 16.5 181.421 58.9471 16.5 268.261 0 16.5 255.132 82.8974 16.5
          369.017 0 16.5 350.956 114.033 16.5 500 0 16.5 475.528 154.508 16.5
          0.2 0 22 1.4 0 22 0.190211 0.0618034 22 1.33148 0.432624 22
          2.6 0 22 2.47275 0.803444 22 3.8 0 22 3.61401 1.17426 22
          5 0 22 4.75528 1.54508 22 8.52774 0 22 8.11037 2.63522 22
          13.1138 0 22 12.472 4.05239 22 19.0757 0 22 18.1421 5.89471 22
          26.8261 0 22 25.5132 8.28974 22 36.9017 0 22 35.0956 11.4033 22
          50 0 22 47.5528 15.4508 22 85.2774 0 22 81.1037 26.3522 22
          131.138 0 22 124.72 40.5239 22 190.757 0 22 181.421 58.9471 22
          268.261 0 22 255.132 82.8974 22 369.017 0 22 350.956 114.033 22
          500 0 22 475.528 154.508 22 0.161803 0.117557 0 1.13262 0.822899 0
          0.161803 0.117557 5.5 1.13262 0.822899 5.5 2.10344 1.52824 0 2.10344 1.52824 5.5
          3.07426 2.23358 0 3.07426 2.23358 5.5 4.04508 2.93893 0 4.04508 2.93893 5.5
          6.89909 5.01248 0 6.89909 5.01248 5.5 10.6093 7.7081 0 10.6093 7.7081 5.5
          15.4326 11.2124 0 15.4326 11.2124 5.5 21.7028 15.768 0 21.7028 15.768 5.5
          29.8541 21.6903 0 29.8541 21.6903 5.5 40.4509 29.3893 0 40.4509 29.3893 5.5
          68.9909 50.1248 0 68.9909 50.1248 5.5 106.093 77.081 0 106.093 77.081 5.5
          154.326 112.124 0 154.326 112.124 5.5 217.028 157.68 0 217.028 157.68 5.5
          298.541 216.903 0 298.541 216.903 5.5 404.508 293.893 0 404.508 293.893 5.5
          0.161803 0.117557 11 1.13262 0.822899 11 2.10344 1.52824 11 3.07426 2.23358 11
          4.04508 2.93893 11 6.89909 5.01248 11 10.6093 7.7081 11 15.4326 11.2124 11
          21.7028 15.768 11 29.8541 21.6903 11 40.4509 29.3893 11 68.9909 50.1248 11
          106.093 77.081 11 154.326 112.124 11 217.028 157.68 11 298.541 216.903 11
          404.508 293.893 11 0.161803 0.117557 16.5 1.13262 0.822899 16.5 2.10344 1.52824 16.5
          3.07426 2.23358 16.5 4.04508 2.93893 16.5 6.89909 5.01248 16.5 10.6093 7.7081 16.5
          15.4326 11.2124 16.5 21.7028 15.768 16.5 29.8541 21.6903 16.5 40.4509 29.3893 16.5
          68.9909 50.1248 16.5 106.093 77.081 16.5 154.326 112.124 16.5 217.028 157.68 16.5
          298.541 216.903 16.5 404.508 293.893 16.5 0.161803 0.117557 22 1.13262 0.822899 22
          2.10344 1.52824 22 3.07426 2.23358 22 4.04508 2.93893 22 6.89909 5.01248 22
          10.6093 7.7081 22 15.4326 11.2124 22 21.7028 15.768 22 29.8541 21.6903 22
          40.4509 29.3893 22 68.9909 50.1248 22 106.093 77.081 22 154.326 112.124 22
          217.028 157.68 22 298.541 216.903 22 404.508 293.893 22 0.117557 0.161803 0
          0.822899 1.13262 0 0.117557 0.161803 5.5 0.822899 1.13262 5.5 1.52824 2.10344 0
          1.52824 2.10344 5.5 2.23358 3.07426 0 2.23358 3.07426 5.5 2.93893 4.04508 0
          2.93893 4.04508 5.5 5.01248 6.89909 0 5.01248 6.89909 5.5 7.7081 10.6093 0
          7.7081 10.6093 5.5 11.2124 15.4326 0 11.2124 15.4326 5.5 15.768 21.7028 0
          15.768 21.7028 5.5 21.6903 29.8541 0 21.6903 29.8541 5.5 29.3893 40.4509 0
          29.3893 40.4509 5.5 50.1248 68.9909 0 50.1248 68.9909 5.5 77.081 106.093 0
          77.081 106.093 5.5 112.124 154.326 0 112.124 154.326 5.5 157.68 217.028 0
          157.68 217.028 5.5 216.903 298.541 0 216.903 298.541 5.5 293.893 404.508 0
          293.893 404.508 5.5 0.117557 0.161803 11 0.822899 1.13262 11 1.52824 2.10344 11
          2.23358 3.07426 11 2.93893 4.04508 11 5.01248 6.89909 11 7.7081 10.6093 11
          11.2124 15.4326 11 15.768 21.7028 11 21.6903 29.8541 11 29.3893 40.4509 11
          50.1248 68.9909 11 77.081 106.093 11 112.124 154.326 11 157.68 217.028 11
          216.903 298.541 11 293.893 404.508 11 0.117557 0.161803 16.5 0.822899 1.13262 16.5
          1.52824 2.10344 16.5 2.23358 3.07426 16.5 2.93893 4.04508 16.5 5.01248 6.89909 16.5
          7.7081 10.6093 16.5 11.2124 15.4326 16.5 15.768 21.7028 16.5 21.6903 29.8541 16.5
          29.3893 40.4509 16.5 50.1248 68.9909 16.5 77.081 106.093 16.5 112.124 154.326 16.5
          157.68 217.028 16.5 216.903 298.541 16.5 293.893 404.508 16.5 0.117557 0.161803 22
          0.822899 1.13262 22 1.52824 2.10344 22 2.23358 3.07426 22 2.93893 4.04508 22
          5.01248 6.89909 22 7.7081 10.6093 22 11.2124 15.4326 22 15.768 21.7028 22
          21.6903 29.8541 22 29.3893 40.4509 22 50.1248 68.9909 22 77.081 106.093 22
          112.124 154.326 22 157.68 217.028 22 216.903 298.541 22 293.893 404.508 22
          0.0618034 0.190211 0 0.432624 1.33148 0 0.0618034 0.190211 5.5 0.432624 1.33148 5.5
          0.803444 2.47275 0 0.803444 2.47275 5.5 1.17426 3.61401 0 1.17426 3.61401 5.5
          1.54508 4.75528 0 1.54508 4.75528 5.5 2.63522 8.11037 0 2.63522 8.11037 5.5
          4.05239 12.472 0 4.05239 12.472 5.5 5.89471 18.1421 0 5.89471 18.1421 5.5
          8.28974 25.5132 0 8.28974 25.5132 5.5 11.4033 35.0956 0 11.4033 35.0956 5.5
          15.4508 47.5528 0 15.4508 47.5528 5.5 26.3522 81.1037 0 26.3522 81.1037 5.5
          40.5239 124.72 0 40.5239 124.72 5.5 58.9471 181.421 0 58.9471 181.421 5.5
          82.8974 255.132 0 82.8974 255.132 5.5 114.033 350.956 0 114.033 350.956 5.5
          154.508 475.528 0 154.508 475.528 5.5 0.0618034 0.190211 11 0.432624 1.33148 11
          0.803444 2.47275 11 1.17426 3.61401 11 1.54508 4.75528 11 2.63522 8.11037 11
          4.05239 12.472 11 5.89471 18.1421 11 8.28974 25.5132 11 11.4033 35.0956 11
          15.4508 47.5528 11 26.3522 81.1037 11 40.5239 124.72 11 58.9471 181.421 11
          82.8974 255.132 11 114.033 350.956 11 154.508 475.528 11 0.0618034 0.190211 16.5
          0.432624 1.33148 16.5 0.803444 2.47275 16.5 1.17426 3.61401 16.5 1.54508 4.75528 16.5
          2.63522 8.11037 16.5 4.05239 12.472 16.5 5.89471 18.1421 16.5 8.28974 25.5132 16.5
          11.4033 35.0956 16.5 15.4508 47.5528 16.5 26.3522 81.1037 16.5 40.5239 124.72 16.5
          58.9471 181.421 16.5 82.8974 255.132 16.5 114.033 350.956 16.5 154.508 475.528 16.5
          0.0618034 0.190211 22 0.432624 1.33148 22 0.803444 2.47275 22 1.17426 3.61401 22
          1.54508 4.75528 22 2.63522 8.11037 22 4.05239 12.472 22 5.89471 18.1421 22
          8.28974 25.5132 22 11.4033 35.0956 22 15.4508 47.5528 22 26.3522 81.1037 22
          40.5239 124.72 22 58.9471 181.421 22 82.8974 255.132 22 114.033 350.956 22
          154.508 475.528 22 0 0.2 0 1.11022e-16 1.4 0 1.22465e-17 0.2 5.5
          8.57253e-17 1.4 5.5 1.11022e-16 2.6 0 1.59204e-16 2.6 5.5 2.22045e-16 3.8 0
          2.32683e-16 3.8 5.5 2.22045e-16 5 0 3.06162e-16 5 5.5 4.44089e-16 8.52774 0
          5.22174e-16 8.52774 5.5 8.88178e-16 13.1138 0 8.02989e-16 13.1138 5.5 8.88178e-16 19.0757 0
          1.16805e-15 19.0757 5.5 1.77636e-15 26.8261 0 1.64263e-15 26.8261 5.5 1.77636e-15 36.9017 0
          2.25958e-15 36.9017 5.5 3.55271e-15 50 0 3.06162e-15 50 5.5 3.55271e-15 85.2774 0
          5.22174e-15 85.2774 5.5 7.10543e-15 131.138 0 8.02989e-15 131.138 5.5 1.42109e-14 190.757 0
          1.16805e-14 190.757 5.5 1.42109e-14 268.261 0 1.64263e-14 268.261 5.5 2.84217e-14 369.017 0
          2.25958e-14 369.017 5.5 2.84217e-14 500 0 2.62272e-14 500 5.5 1.22465e-17 0.2 11
          8.57253e-17 1.4 11 1.59204e-16 2.6 11 2.32683e-16 3.8 11 3.06162e-16 5 11
          5.22174e-16 8.52774 11 8.02989e-16 13.1138 11 1.16805e-15 19.0757 11 1.64263e-15 26.8261 11
          2.25958e-15 36.9017 11 3.06162e-15 50 11 5.22174e-15 85.2774 11 8.02989e-15 131.138 11
          1.16805e-14 190.757 11 1.64263e-14 268.261 11 2.25958e-14 369.017 11 2.62272e-14 500 11
          1.22465e-17 0.2 16.5 8.57253e-17 1.4 16.5 1.59204e-16 2.6 16.5 2.32683e-16 3.8 16.5
          3.06162e-16 5 16.5 5.22174e-16 8.52774 16.5 8.02989e-16 13.1138 16.5 1.16805e-15 19.0757 16.5
          1.64263e-15 26.8261 16.5 2.25958e-15 36.9017 16.5 3.06162e-15 50 16.5 5.22174e-15 85.2774 16.5
          8.02989e-15 131.138 16.5 1.16805e-14 190.757 16.5 1.64263e-14 268.261 16.5 2.25958e-14 369.017 16.5
          2.62272e-14 500 16.5 1.22465e-17 0.2 22 5.55112e-17 1.4 22 1.66533e-16 2.6 22
          2.22045e-16 3.8 22 2.22045e-16 5 22 4.44089e-16 8.52774 22 8.88178e-16 13.1138 22
          8.88178e-16 19.0757 22 1.77636e-15 26.8261 22 1.77636e-15 36.9017 22 3.55271e-15 50 22
          5.32907e-15 85.2774 22 7.10543e-15 131.138 22 1.42109e-14 190.757 22 1.42109e-14 268.261 22
          2.84217e-14 369.017 22 2.62272e-14 500 22 -0.0618034 0.190211 0 -0.432624 1.33148 0
          -0.0618034 0.190211 5.5 -0.432624 1.33148 5.5 -0.803444 2.47275 0 -0.803444 2.47275 5.5
          -1.17426 3.61401 0 -1.17426 3.61401 5.5 -1.54508 4.75528 0 -1.54508 4.75528 5.5
          -2.63522 8.11037 0 -2.63522 8.11037 5.5 -4.05239 12.472 0 -4.05239 12.472 5.5
          -5.89471 18.1421 0 -5.89471 18.1421 5.5 -8.28974 25.5132 0 -8.28974 25.5132 5.5
          -11.4033 35.0956 0 -11.4033 35.0956 5.5 -15.4508 47.5528 0 -15.4508 47.5528 5.5
          -26.3522 81.1037 0 -26.3522 81.1037 5.5 -40.5239 124.72 0 -40.5239 124.72 5.5
          -58.9471 181.421 0 -58.9471 181.421 5.5 -82.8974 255.132 0 -82.8974 255.132 5.5
          -114.033 350.956 0 -114.033 350.956 5.5 -154.508 475.528 0 -154.508 475.528 5.5
          -0.0618034 0.190211 11 -0.432624 1.33148 11 -0.803444 2.47275 11 -1.17426 3.61401 11
          -1.54508 4.75528 11 -2.63522 8.11037 11 -4.05239 12.472 11 -5.89471 18.1421 11
          -8.28974 25.5132 11 -11.4033 35.0956 11 -15.4508 47.5528 11 -26.3522 81.1037 11
          -40.5239 124.72 11 -58.9471 181.421 11 -82.8974 255.132 11 -114.033 350.956 11
          -154.508 475.528 11 -0.0618034 0.190211 16.5 -0.432624 1.33148 16.5 -0.803444 2.47275 16.5
          -1.17426 3.61401 16.5 -1.54508 4.75528 16.5 -2.63522 8.11037 16.5 -4.05239 12.472 16.5
          -5.89471 18.1421 16.5 -8.28974 25.5132 16.5 -11.4033 35.0956 16.5 -15.4508 47.5528 16.5
          -26.3522 81.1037 16.5 -40.5239 124.72 16.5 -58.9471 181.421 16.5 -82.8974 255.132 16.5
          -114.033 350.956 16.5 -154.508 475.528 16.5 -0.0618034 0.190211 22 -0.432624 1.33148 22
          -0.803444 2.47275 22 -1.17426 3.61401 22 -1.54508 4.75528 22 -2.63522 8.11037 22
          -4.05239 12.472 22 -5.89471 18.1421 22 -8.28974 25.5132 22 -11.4033 35.0956 22
          -15.4508 47.5528 22 -26.3522 81.1037 22 -40.5239 124.72 22 -58.9471 181.421 22
          -82.8974 255.132 22 -114.033 350.956 22 -154.508 475.528 22 -0.117557 0.161803 0
          -0.822899 1.13262 0 -0.117557 0.161803 5.5 -0.822899 1.13262 5.5 -1.52824 2.10344 0
          -1.52824 2.10344 5.5 -2.23358 3.07426 0 -2.23358 3.07426 5.5 -2.93893 4.04508 0
          -2.93893 4.04508 5.5 -5.01248 6.89909 0 -5.01248 6.89909 5.5 -7.7081 10.6093 0
          -7.7081 10.6093 5.5 -11.2124 15.4326 0 -11.2124 15.4326 5.5 -15.768 21.7028 0
          -15.768 21.7028 5.5 -21.6903 29.8541 0 -21.6903 29.8541 5.5 -29.3893 40.4509 0
          -29.3893 40.4509 5.5 -50.1248 68.9909 0 -50.1248 68.9909 5.5 -77.081 106.093 0
          -77.081 106.093 5.5 -112.124 154.326 0 -112.124 154.326 5.5 -157.68 217.028 0
          -157.68 217.028 5.5 -216.903 298.541 0 -216.903 298.541 5.5 -293.893 404.508 0
          -293.893 404.508 5.5 -0.117557 0.161803 11 -0.822899 1.13262 11 -1.52824 2.10344 11
          -2.23358 3.07426 11 -2.93893 4.04508 11 -5.01248 6.89909 11 -7.7081 10.6093 11
          -11.2124 15.4326 11 -15.768 21.7028 11 -21.6903 29.8541 11 -29.3893 40.4509 11
          -50.1248 68.9909 11 -77.081 106.093 11 -112.124 154.326 11 -157.68 217.028 11
          -216.903 298.541 11 -293.893 404.508 11 -0.117557 0.161803 16.5 -0.822899 1.13262 16.5
          -1.52824 2.10344 16.5 -2.23358 3.07426 16.5 -2.93893 4.04508 16.5 -5.01248 6.89909 16.5
          -7.7081 10.6093 16.5 -11.2124 15.4326 16.5 -15.768 21.7028 16.5 -21.6903 29.8541 16.5
          -29.3893 40.4509 16.5 -50.1248 68.9909 16.5 -77.081 106.093 16.5 -112.124 154.326 16.5
          -157.68 217.028 16.5 -216.903 298.541 16.5 -293.893 404.508 16.5 -0.117557 0.161803 22
          -0.822899 1.13262 22 -1.52824 2.10344 22 -2.23358 3.07426 22 -2.93893 4.04508 22
          -5.01248 6.89909 22 -7.7081 10.6093 22 -11.2124 15.4326 22 -15.768 21.7028 22
          -21.6903 29.8541 22 -29.3893 40.4509 22 -50.1248 68.9909 22 -77.081 106.093 22
          -112.124 154.326 22 -157.68 217.028 22 -216.903 298.541 22 -293.893 404.508 22
          -0.161803 0.117557 0 -1.13262 0.822899 0 -0.161803 0.117557 5.5 -1.13262 0.822899 5.5
          -2.10344 1.52824 0 -2.10344 1.52824 5.5 -3.07426 2.23358 0 -3.07426 2.23358 5.5
          -4.04508 2.93893 0 -4.04508 2.93893 5.5 -6.89909 5.01248 0 -6.89909 5.01248 5.5
          -10.6093 7.7081 0 -10.6093 7.7081 5.5 -15.4326 11.2124 0 -15.4326 11.2124 5.5
          -21.7028 15.768 0 -21.7028 15.768 5.5 -29.8541 21.6903 0 -29.8541 21.6903 5.5
          -40.4509 29.3893 0 -40.4509 29.3893 5.5 -68.9909 50.1248 0 -68.9909 50.1248 5.5
          -106.093 77.081 0 -106.093 77.081 5.5 -154.326 112.124 0 -154.326 112.124 5.5
          -217.028 157.68 0 -217.028 157.68 5.5 -298.541 216.903 0 -298.541 216.903 5.5
          -404.508 293.893 0 -404.508 293.893 5.5 -0.161803 0.117557 11 -1.13262 0.822899 11
          -2.10344 1.52824 11 -3.07426 2.23358 11 -4.04508 2.93893 11 -6.89909 5.01248 11
          -10.6093 7.7081 11 -15.4326 11.2124 11 -21.7028 15.768 11 -29.8541 21.6903 11
          -40.4509 29.3893 11 -68.9909 50.1248 11 -106.093 77.081 11 -154.326 112.124 11
          -217.028 157.68 11 -298.541 216.903 11 -404.508 293.893 11 -0.161803 0.117557 16.5
          -1.13262 0.822899 16.5 -2.10344 1.52824 16.5 -3.07426 2.23358 16.5 -4.04508 2.93893 16.5
          -6.89909 5.01248 16.5 -10.6093 7.7081 16.5 -15.4326 11.2124 16.5 -21.7028 15.768 16.5
          -29.8541 21.6903 16.5 -40.4509 29.3893 16.5 -68.9909 50.1248 16.5 -106.093 77.081 16.5