<?xml version="1.0"?>
<VTKFile type="UnstructuredGrid" version="0.1" byte_order="LittleEndian">
  <UnstructuredGrid>
    <Piece NumberOfCells="72" NumberOfPoints="147">
      <PointData Scalars="S_liq" Vectors="velocity_liq (m/s)">
        <DataArray type="Float32" Name="S_liq" NumberOfComponents="1" format="ascii">
          0.26 0.26 0.26 0.26 0.26 0.26 0.26 0.26 0.26 0.26 0.26 0.26
          0.26 0.26 0.26 0.26 0.26 0.26 0.26 0.26 0.26 0.26 0.26 0.26
          0.26 0.26 0.26 0.26 0.26 0.26 0.26 0.26 0.26 0.26 0.26 0.26
          0.26 0.26 0.26 0.26 0.26 0.26 0.26 0.26 0.26 0.26 0.26 0.26
          0.26 0.26 0.26 0.26 0.26 0.26 0.26 0.26 0.26 0.26 0.26 0.26
          0.26 0.26 0.26 0.26 0.26 0.26 0.26 0.26 0.26 0.26 0.26 0.26
          0.26 0.26 0.26 0.26 0.26 0.26 0.26 0.26 0.26 0.26 0.26 0.26
          0.26 0.26 0.26 0.26 0.26 0.26 0.26 0.26 0.26 0.26 0.26 0.26
          0.26 0.26 0.26 0.26 0.26 0.26 0.26 0.26 0.26 0.26 0.26 0.26
          0.26 0.26 0.26 0.26 0.26 0.26 0.26 0.26 0.26 0.26 0.26 0.26
          0.26 0.26 0.26 0.26 0.26 0.26 0.26 0.26 0.26 0.26 0.26 0.26
          0.26 0.26 0.26 0.26 0.26 0.26 0.26 0.26 0.26 0.26 0.26 0.26
          0.26 0.26 0.26
        </DataArray>
        <DataArray type="Float32" Name="p_liq" NumberOfComponents="1" format="ascii">
          6e+06 6e+06 6e+06 6.0005e+06 6e+06 6e+06 6e+06 6.0005e+06 6e+06 6.00089e+06 6e+06 6.00089e+06
          6e+06 6.00088e+06 6e+06 6.00088e+06 6e+06 6.00089e+06 6e+06 6.00089e+06 6e+06 6.0005e+06 6e+06 6.0005e+06
          6e+06 6e+06 6e+06 6e+06 6e+06 6.00089e+06 6e+06 6.00089e+06 6.00291e+06 6.00291e+06 6.00325e+06 6.00325e+06
          6.00291e+06 6.00291e+06 6.00089e+06 6.00089e+06 6e+06 6e+06 6e+06 6.00088e+06 6e+06 6.00088e+06 6.00325e+06 6.00325e+06
          6.0041e+06 6.0041e+06 6.00325e+06 6.00325e+06 6.00088e+06 6.00088e+06 6e+06 6e+06 6e+06 6.00089e+06 6e+06 6.00089e+06
          6.00291e+06 6.00291e+06 6.00325e+06 6.00325e+06 6.00291e+06 6.00291e+06 6.00089e+06 6.00089e+06 6e+06 6e+06 6e+06 6.0005e+06
          6e+06 6.0005e+06 6.00089e+06 6.00089e+06 6.00088e+06 6.00088e+06 6.00089e+06 6.00089e+06 6.0005e+06 6.0005e+06 6e+06 6e+06
          6e+06 6e+06 6e+06 6e+06 6e+06 6e+06 6e+06 6e+06 6e+06 6e+06 6e+06 6e+06
          6e+06 6e+06 6e+06 6e+06 6e+06 6.0005e+06 6e+06 6.00089e+06 6e+06 6.00088e+06 6e+06 6.00089e+06
          6e+06 6.0005e+06 6e+06 6e+06 6e+06 6.00089e+06 6.00291e+06 6.00325e+06 6.00291e+06 6.00089e+06 6e+06 6e+06
          6.00088e+06 6.00325e+06 6.0041e+06 6.00325e+06 6.00088e+06 6e+06 6e+06 6.00089e+06 6.00291e+06 6.00325e+06 6.00291e+06 6.00089e+06
          6e+06 6e+06 6.0005e+06 6.00089e+06 6.00088e+06 6.00089e+06 6.0005e+06 6e+06 6e+06 6e+06 6e+06 6e+06
          6e+06 6e+06 6e+06
        </DataArray>
        <DataArray type="Float32" Name="rho_liq" NumberOfComponents="1" format="ascii">
          1000 1000 1000 1000 1000 1000 1000 1000 1000 1000 1000 1000
          1000 1000 1000 1000 1000 1000 1000 1000 1000 1000 1000 1000
          1000 1000 1000 1000 1000 1000 1000 1000 1000 1000 1000 1000
          1000 1000 1000 1000 1000 1000 1000 1000 1000 1000 1000 1000
          1000 1000 1000 1000 1000 1000 1000 1000 1000 1000 1000 1000
          1000 1000 1000 1000 1000 1000 1000 1000 1000 1000 1000 1000
          1000 1000 1000 1000 1000 1000 1000 1000 1000 1000 1000 1000
          1000 1000 1000 1000 1000 1000 1000 1000 1000 1000 1000 1000
          1000 1000 1000 1000 1000 1000 1000 1000 1000 1000 1000 1000
          1000 1000 1000 1000 1000 1000 1000 1000 1000 1000 1000 1000
          1000 1000 1000 1000 1000 1000 1000 1000 1000 1000 1000 1000
          1000 1000 1000 1000 1000 1000 1000 1000 1000 1000 1000 1000
          1000 1000 1000
        </DataArray>
        <DataArray type="Float32" Name="mob_liq" NumberOfComponents="1" format="ascii">
          0 0 0 0 0 0 0 0 0 0 0 0
          0 0 0 0 0 0 0 0 0 0 0 0
          0 0 0 0 0 0 0 0 0 0 0 0
          0 0 0 0 0 0 0 0 0 0 0 0
          0 0 0 0 0 0 0 0 0 0 0 0
          0 0 0 0 0 0 0 0 0 0 0 0
          0 0 0 0 0 0 0 0 0 0 0 0
          0 0 0 0 0 0 0 0 0 0 0 0
          0 0 0 0 0 0 0 0 0 0 0 0
          0 0 0 0 0 0 0 0 0 0 0 0
          0 0 0 0 0 0 0 0 0 0 0 0
          0 0 0 0 0 0 0 0 0 0 0 0
          0 0 0
        </DataArray>
        <DataArray type="Float32" Name="S_gas" NumberOfComponents="1" format="ascii">
          0.74 0.74 0.74 0.74 0.74 0.74 0.74 0.74 0.74 0.74 0.74 0.74
          0.74 0.74 0.74 0.74 0.74 0.74 0.74 0.74 0.74 0.74 0.74 0.74
          0.74 0.74 0.74 0.74 0.74 0.74 0.74 0.74 0.74 0.74 0.74 0.74
          0.74 0.74 0.74 0.74 0.74 0.74 0.74 0.74 0.74 0.74 0.74 0.74
          0.74 0.74 0.74 0.74 0.74 0.74 0.74 0.74 0.74 0.74 0.74 0.74
          0.74 0.74 0.74 0.74 0.74 0.74 0.74 0.74 0.74 0.74 0.74 0.74
          0.74 0.74 0.74 0.74 0.74 0.74 0.74 0.74 0.74 0.74 0.74 0.74
          0.74 0.74 0.74 0.74 0.74 0.74 0.74 0.74 0.74 0.74 0.74 0.74
          0.74 0.74 0.74 0.74 0.74 0.74 0.74 0.74 0.74 0.74 0.74 0.74
          0.74 0.74 0.74 0.74 0.74 0.74 0.74 0.74 0.74 0.74 0.74 0.74
          0.74 0.74 0.74 0.74 0.74 0.74 0.74 0.74 0.74 0.74 0.74 0.74
          0.74 0.74 0.74 0.74 0.74 0.74 0.74 0.74 0.74 0.74 0.74 0.74
          0.74 0.74 0.74
        </DataArray>
        <DataArray type="Float32" Name="p_gas" NumberOfComponents="1" format="ascii">
          6.075e+06 6.075e+06 6.075e+06 6.0755e+06 6.075e+06 6.075e+06 6.075e+06 6.0755e+06 6.075e+06 6.07589e+06 6.075e+06 6.07589e+06
          6.075e+06 6.07588e+06 6.075e+06 6.07588e+06 6.075e+06 6.07589e+06 6.075e+06 6.07589e+06 6.075e+06 6.0755e+06 6.075e+06 6.0755e+06
          6.075e+06 6.075e+06 6.075e+06 6.075e+06 6.075e+06 6.07589e+06 6.075e+06 6.07589e+06 6.07791e+06 6.07791e+06 6.07825e+06 6.07825e+06
          6.07791e+06 6.07791e+06 6.07589e+06 6.07589e+06 6.075e+06 6.075e+06 6.075e+06 6.07588e+06 6.075e+06 6.07588e+06 6.07825e+06 6.07825e+06
          6.0791e+06 6.0791e+06 6.07825e+06 6.07825e+06 6.07588e+06 6.07588e+06 6.075e+06 6.075e+06 6.075e+06 6.07589e+06 6.075e+06 6.07589e+06
          6.07791e+06 6.07791e+06 6.07825e+06 6.07825e+06 6.07791e+06 6.07791e+06 6.07589e+06 6.07589e+06 6.075e+06 6.075e+06 6.075e+06 6.0755e+06
          6.075e+06 6.0755e+06 6.07589e+06 6.07589e+06 6.07588e+06 6.07588e+06 6.07589e+06 6.07589e+06 6.0755e+06 6.0755e+06 6.075e+06 6.075e+06
          6.075e+06 6.075e+06 6.075e+06 6.075e+06 6.075e+06 6.075e+06 6.075e+06 6.075e+06 6.075e+06 6.075e+06 6.075e+06 6.075e+06
          6.075e+06 6.075e+06 6.075e+06 6.075e+06 6.075e+06 6.0755e+06 6.075e+06 6.07589e+06 6.075e+06 6.07588e+06 6.075e+06 6.07589e+06
          6.075e+06 6.0755e+06 6.075e+06 6.075e+06 6.075e+06 6.07589e+06 6.07791e+06 6.07825e+06 6.07791e+06 6.07589e+06 6.075e+06 6.075e+06
          6.07588e+06 6.07825e+06 6.0791e+06 6.07825e+06 6.07588e+06 6.075e+06 6.075e+06 6.07589e+06 6.07791e+06 6.07825e+06 6.07791e+06 6.07589e+06
          6.075e+06 6.075e+06 6.0755e+06 6.07589e+06 6.07588e+06 6.07589e+06 6.0755e+06 6.075e+06 6.075e+06 6.075e+06 6.075e+06 6.075e+06
          6.075e+06 6.075e+06 6.075e+06
        </DataArray>
        <DataArray type="Float32" Name="rho_gas" NumberOfComponents="1" format="ascii">
          41.5124 41.5124 41.5124 41.5161 41.5124 41.5124 41.5124 41.5161 41.5124 41.519 41.5124 41.519
          41.5124 41.5184 41.5124 41.5184 41.5124 41.519 41.5124 41.519 41.5124 41.5161 41.5124 41.5161
          41.5124 41.5124 41.5124 41.5124 41.5124 41.519 41.5124 41.519 41.4779 41.4779 41.2291 41.2291
          41.4779 41.4779 41.519 41.519 41.5124 41.5124 41.5124 41.5184 41.5124 41.5184 41.2291 41.2291
          39.9434 39.9434 41.2291 41.2291 41.5184 41.5184 41.5124 41.5124 41.5124 41.519 41.5124 41.519
          41.4779 41.4779 41.2291 41.2291 41.4779 41.4779 41.519 41.519 41.5124 41.5124 41.5124 41.5161
          41.5124 41.5161 41.519 41.519 41.5184 41.5184 41.519 41.519 41.5161 41.5161 41.5124 41.5124
          41.5124 41.5124 41.5124 41.5124 41.5124 41.5124 41.5124 41.5124 41.5124 41.5124 41.5124 41.5124
          41.5124 41.5124 41.5124 41.5124 41.5124 41.5161 41.5124 41.519 41.5124 41.5184 41.5124 41.519
          41.5124 41.5161 41.5124 41.5124 41.5124 41.519 41.4779 41.2291 41.4779 41.519 41.5124 41.5124
          41.5184 41.2291 39.9434 41.2291 41.5184 41.5124 41.5124 41.519 41.4779 41.2291 41.4779 41.519
          41.5124 41.5124 41.5161 41.519 41.5184 41.519 41.5161 41.5124 41.5124 41.5124 41.5124 41.5124
          41.5124 41.5124 41.5124
        </DataArray>
        <DataArray type="Float32" Name="mob_gas" NumberOfComponents="1" format="ascii">
          85696 85696 85696 85696 85696 85696 85696 85696 85696 85696 85696 85696
          85696 85695.9 85696 85695.9 85696 85696 85696 85696 85696 85696 85696 85696
          85696 85696 85696 85696 85696 85696 85696 85696 85693.2 85693.2 85681.1 85681.1
          85693.2 85693.2 85696 85696 85696 85696 85696 85695.9 85696 85695.9 85681.1 85681.1
          85622.1 85622.1 85681.1 85681.1 85695.9 85695.9 85696 85696 85696 85696 85696 85696
          85693.2 85693.2 85681.1 85681.1 85693.2 85693.2 85696 85696 85696 85696 85696 85696
          85696 85696 85696 85696 85695.9 85695.9 85696 85696 85696 85696 85696 85696
          85696 85696 85696 85696 85696 85696 85696 85696 85696 85696 85696 85696
          85696 85696 85696 85696 85696 85696 85696 85696 85696 85695.9 85696 85696
          85696 85696 85696 85696 85696 85696 85693.2 85681.1 85693.2 85696 85696 85696
          85695.9 85681.1 85622.1 85681.1 85695.9 85696 85696 85696 85693.2 85681.1 85693.2 85696
          85696 85696 85696 85696 85695.9 85696 85696 85696 85696 85696 85696 85696
          85696 85696 85696
        </DataArray>
        <DataArray type="Float32" Name="pc" NumberOfComponents="1" format="ascii">
          75000 75000 75000 75000 75000 75000 75000 75000 75000 75000 75000 75000
          75000 75000 75000 75000 75000 75000 75000 75000 75000 75000 75000 75000
          75000 75000 75000 75000 75000 75000 75000 75000 75000 75000 75000 75000
[...]
      <CellData Scalars="process rank">
        <DataArray type="Float32" Name="process rank" NumberOfComponents="1" format="ascii">
          0 0 0 0 0 0 0 0 0 0 0 0
          0 0 0 0 0 0 0 0 0 0 0 0
          0 0 0 0 0 0 0 0 0 0 0 0
          0 0 0 0 0 0 0 0 0 0 0 0
          0 0 0 0 0 0 0 0 0 0 0 0
          0 0 0 0 0 0 0 0 0 0 0 0
        </DataArray>
      </CellData>
      <Points>
        <DataArray type="Float32" Name="Coordinates" NumberOfComponents="3" format="ascii">
          -10 -10 0 -5.5 -10 0 -10 -5.5 0 -5.5 -5.5 0
          -10 -10 11 -5.5 -10 11 -10 -5.5 11 -5.5 -5.5 11
          -1 -10 0 -1 -5.5 0 -1 -10 11 -1 -5.5 11
          0 -10 0 0 -5.5 0 0 -10 11 0 -5.5 11
          1 -10 0 1 -5.5 0 1 -10 11 1 -5.5 11
          5.5 -10 0 5.5 -5.5 0 5.5 -10 11 5.5 -5.5 11
          10 -10 0 10 -5.5 0 10 -10 11 10 -5.5 11
          -10 -1 0 -5.5 -1 0 -10 -1 11 -5.5 -1 11
          -1 -1 0 -1 -1 11 0 -1 0 0 -1 11
          1 -1 0 1 -1 11 5.5 -1 0 5.5 -1 11
          10 -1 0 10 -1 11 -10 0 0 -5.5 0 0
          -10 0 11 -5.5 0 11 -1 0 0 -1 0 11
          0 0 0 0 0 11 1 0 0 1 0 11
          5.5 0 0 5.5 0 11 10 0 0 10 0 11
          -10 1 0 -5.5 1 0 -10 1 11 -5.5 1 11
          -1 1 0 -1 1 11 0 1 0 0 1 11
          1 1 0 1 1 11 5.5 1 0 5.5 1 11
          10 1 0 10 1 11 -10 5.5 0 -5.5 5.5 0
          -10 5.5 11 -5.5 5.5 11 -1 5.5 0 -1 5.5 11
          0 5.5 0 0 5.5 11 1 5.5 0 1 5.5 11
          5.5 5.5 0 5.5 5.5 11 10 5.5 0 10 5.5 11
          -10 10 0 -5.5 10 0 -10 10 11 -5.5 10 11
          -1 10 0 -1 10 11 0 10 0 0 10 11
          1 10 0 1 10 11 5.5 10 0 5.5 10 11
          10 10 0 10 10 11 -10 -10 22 -5.5 -10 22
          -10 -5.5 22 -5.5 -5.5 22 -1 -10 22 -1 -5.5 22
          0 -10 22 0 -5.5 22 1 -10 22 1 -5.5 22
          5.5 -10 22 5.5 -5.5 22 10 -10 22 10 -5.5 22
          -10 -1 22 -5.5 -1 22 -1 -1 22 0 -1 22
          1 -1 22 5.5 -1 22 10 -1 22 -10 0 22
          -5.5 0 22 -1 0 22 0 0 22 1 0 22
          5.5 0 22 10 0 22 -10 1 22 -5.5 1 22
          -1 1 22 0 1 22 1 1 22 5.5 1 22
          10 1 22 -10 5.5 22 -5.5 5.5 22 -1 5.5 22
          0 5.5 22 1 5.5 22 5.5 5.5 22 10 5.5 22
          -10 10 22 -5.5 10 22 -1 10 22 0 10 22
          1 10 22 5.5 10 22 10 10 22
        </DataArray>
      </Points>
      <Cells>
        <DataArray type="Int32" Name="connectivity" NumberOfComponents="1" format="ascii">
          0 1 3 2 4 5 7 6 1 8 9 3
          5 10 11 7 8 12 13 9 10 14 15 11
          12 16 17 13 14 18 19 15 16 20 21 17
          18 22 23 19 20 24 25 21 22 26 27 23
          2 3 29 28 6 7 31 30 3 9 32 29
          7 11 33 31 9 13 34 32 11 15 35 33
          13 17 36 34 15 19 37 35 17 21 38 36
          19 23 39 37 21 25 40 38 23 27 41 39
          28 29 43 42 30 31 45 44 29 32 46 43
          31 33 47 45 32 34 48 46 33 35 49 47
          34 36 50 48 35 37 51 49 36 38 52 50
          37 39 53 51 38 40 54 52 39 41 55 53
          42 43 57 56 44 45 59 58 43 46 60 57
          45 47 61 59 46 48 62 60 47 49 63 61
          48 50 64 62 49 51 65 63 50 52 66 64
          51 53 67 65 52 54 68 66 53 55 69 67
          56 57 71 70 58 59 73 72 57 60 74 71
          59 61 75 73 60 62 76 74 61 63 77 75
          62 64 78 76 63 65 79 77 64 66 80 78
          65 67 81 79 66 68 82 80 67 69 83 81
          70 71 85 84 72 73 87 86 71 74 88 85
          73 75 89 87 74 76 90 88 75 77 91 89
          76 78 92 90 77 79 93 91 78 80 94 92
          79 81 95 93 80 82 96 94 81 83 97 95
          4 5 7 6 98 99 101 100 5 10 11 7
          99 102 103 101 10 14 15 11 102 104 105 103
          14 18 19 15 104 106 107 105 18 22 23 19
          106 108 109 107 22 26 27 23 108 110 111 109
          6 7 31 30 100 101 113 112 7 11 33 31
          101 103 114 113 11 15 35 33 103 105 115 114
          15 19 37 35 105 107 116 115 19 23 39 37
          107 109 117 116 23 27 41 39 109 111 118 117
          30 31 45 44 112 113 120 119 31 33 47 45
          113 114 121 120 33 35 49 47 114 115 122 121
          35 37 51 49 115 116 123 122 37 39 53 51
          116 117 124 123 39 41 55 53 117 118 125 124
          44 45 59 58 119 120 127 126 45 47 61 59
          120 121 128 127 47 49 63 61 121 122 129 128
          49 51 65 63 122 123 130 129 51 53 67 65
          123 124 131 130 53 55 69 67 124 125 132 131
          58 59 73 72 126 127 134 133 59 61 75 73
          127 128 135 134 61 63 77 75 128 129 136 135
          63 65 79 77 129 130 137 136 65 67 81 79
          130 131 138 137 67 69 83 81 131 132 139 138
          72 73 87 86 133 134 141 140 73 75 89 87
          134 135 142 141 75 77 91 89 135 136 143 142
          77 79 93 91 136 137 144 143 79 81 95 93
          137 138 145 144 81 83 97 95 138 139 146 145
        </DataArray>
        <DataArray type="Int32" Name="offsets" NumberOfComponents="1" format="ascii">
          8 16 24 32 40 48 56 64 72 80 88 96
          104 112 120 128 136 144 152 160 168 176 184 192
          200 208 216 224 232 240 248 256 264 272 280 288
          296 304 312 320 328 336 344 352 360 368 376 384
          392 400 408 416 424 432 440 448 456 464 472 480
          488 496 504 512 520 528 536 544 552 560 568 576
        </DataArray>
        <DataArray type="UInt8" Name="types" NumberOfComponents="1" format="ascii">
          12 12 12 12 12 12 12 12 12 12 12 12
          12 12 12 12 12 12 12 12 12 12 12 12
          12 12 12 12 12 12 12 12 12 12 12 12
          12 12 12 12 12 12 12 12 12 12 12 12
          12 12 12 12 12 12 12 12 12 12 12 12
          12 12 12 12 12 12 12 12 12 12 12 12
        </DataArray>
      </Cells>
    </Piece>
  </UnstructuredGrid>
</VTKFile>
