<?xml version="1.0"?>
<VTKFile type="UnstructuredGrid" version="0.1" byte_order="LittleEndian">
  <UnstructuredGrid>
    <Piece NumberOfCells="160" NumberOfPoints="306">
      <PointData Scalars="S_liq" Vectors="velocity_liq (m/s)">
        <DataArray type="Float32" Name="S_liq" NumberOfComponents="1" format="ascii">
          0.260096 0.2601 0.260096 0.2601 0.260096 0.2601 0.260096 0.2601 0.2601 0.2601 0.2601 0.2601
          0.2601 0.2601 0.2601 0.2601 0.2601 0.2601 0.2601 0.2601 0.2601 0.2601 0.2601 0.2601
          0.2601 0.2601 0.2601 0.2601 0.2601 0.2601 0.2601 0.2601 0.2601 0.2601 0.2601 0.2601
          0.2601 0.2601 0.2601 0.2601 0.2601 0.2601 0.2601 0.2601 0.2601 0.2601 0.2601 0.2601
          0.2601 0.2601 0.2601 0.2601 0.2601 0.2601 0.2601 0.2601 0.2601 0.2601 0.2601 0.2601
          0.2601 0.2601 0.2601 0.2601 0.2601 0.2601 0.2601 0.2601 0.260096 0.2601 0.260096 0.2601
          0.2601 0.2601 0.2601 0.2601 0.2601 0.2601 0.2601 0.2601 0.2601 0.2601 0.2601 0.2601
          0.2601 0.2601 0.2601 0.2601 0.2601 0.2601 0.2601 0.2601 0.2601 0.2601 0.2601 0.2601
          0.2601 0.2601 0.2601 0.2601 0.2601 0.2601 0.260096 0.2601 0.260096 0.2601 0.2601 0.2601
          0.2601 0.2601 0.2601 0.2601 0.2601 0.2601 0.2601 0.2601 0.2601 0.2601 0.2601 0.2601
          0.2601 0.2601 0.2601 0.2601 0.2601 0.2601 0.2601 0.2601 0.2601 0.2601 0.2601 0.2601
          0.2601 0.2601 0.2601 0.2601 0.260096 0.2601 0.2601 0.2601 0.2601 0.2601 0.2601 0.2601
          0.2601 0.2601 0.2601 0.2601 0.2601 0.2601 0.2601 0.2601 0.2601 0.260096 0.2601 0.260096
          0.2601 0.2601 0.2601 0.2601 0.2601 0.2601 0.2601 0.2601 0.2601 0.2601 0.2601 0.2601
          0.2601 0.2601 0.2601 0.2601 0.2601 0.2601 0.2601 0.2601 0.2601 0.2601 0.2601 0.2601
          0.2601 0.2601 0.2601 0.2601 0.2601 0.2601 0.2601 0.260096 0.2601 0.2601 0.2601 0.2601
          0.2601 0.2601 0.2601 0.2601 0.2601 0.2601 0.2601 0.2601 0.2601 0.2601 0.2601 0.2601
          0.260096 0.2601 0.260096 0.2601 0.2601 0.2601 0.2601 0.2601 0.2601 0.2601 0.2601 0.2601
          0.2601 0.2601 0.2601 0.2601 0.2601 0.2601 0.2601 0.2601 0.2601 0.2601 0.2601 0.2601
          0.2601 0.2601 0.2601 0.2601 0.2601 0.2601 0.2601 0.2601 0.2601 0.2601 0.260096 0.2601
          0.2601 0.2601 0.2601 0.2601 0.2601 0.2601 0.2601 0.2601 0.2601 0.2601 0.2601 0.2601
          0.2601 0.2601 0.2601 0.260096 0.2601 0.260096 0.2601 0.2601 0.2601 0.2601 0.2601 0.2601
          0.2601 0.2601 0.2601 0.2601 0.2601 0.2601 0.2601 0.2601 0.2601 0.2601 0.2601 0.2601
          0.2601 0.2601 0.2601 0.2601 0.2601 0.2601 0.2601 0.2601 0.2601 0.2601 0.2601 0.2601
          0.2601 0.260096 0.2601 0.2601 0.2601 0.2601 0.2601 0.2601 0.2601 0.2601 0.2601 0.2601
          0.2601 0.2601 0.2601 0.2601 0.2601 0.2601
        </DataArray>
        <DataArray type="Float32" Name="p_liq" NumberOfComponents="1" format="ascii">
          5.91149e+06 5.90978e+06 5.91149e+06 5.90978e+06 5.91059e+06 5.90888e+06 5.91059e+06 5.90888e+06 5.9091e+06 5.9091e+06 5.90819e+06 5.90819e+06
          5.90867e+06 5.90867e+06 5.90776e+06 5.90776e+06 5.90837e+06 5.90837e+06 5.90745e+06 5.90745e+06 5.90784e+06 5.90784e+06 5.90686e+06 5.90686e+06
          5.90749e+06 5.90749e+06 5.9064e+06 5.9064e+06 5.90734e+06 5.90734e+06 5.90601e+06 5.90601e+06 5.90732e+06 5.90732e+06 5.90564e+06 5.90564e+06
          5.90731e+06 5.90731e+06 5.90533e+06 5.90533e+06 5.90718e+06 5.90718e+06 5.90506e+06 5.90506e+06 5.9066e+06 5.9066e+06 5.90441e+06 5.90441e+06
          5.90595e+06 5.90595e+06 5.90374e+06 5.90374e+06 5.90532e+06 5.90532e+06 5.90315e+06 5.90315e+06 5.905e+06 5.905e+06 5.90264e+06 5.90264e+06
          5.90253e+06 5.90253e+06 5.90133e+06 5.90133e+06 5.91551e+06 5.91551e+06 5.90741e+06 5.90741e+06 5.90917e+06 5.90745e+06 5.90917e+06 5.90745e+06
          5.90676e+06 5.90676e+06 5.90633e+06 5.90633e+06 5.90601e+06 5.90601e+06 5.90541e+06 5.90541e+06 5.90491e+06 5.90491e+06 5.90447e+06 5.90447e+06
          5.90399e+06 5.90399e+06 5.9035e+06 5.9035e+06 5.90306e+06 5.90306e+06 5.90224e+06 5.90224e+06 5.90155e+06 5.90155e+06 5.90094e+06 5.90094e+06
          5.90039e+06 5.90039e+06 5.89987e+06 5.89987e+06 5.89934e+06 5.89934e+06 5.91149e+06 5.90978e+06 5.91059e+06 5.90888e+06 5.9091e+06 5.90819e+06
          5.90867e+06 5.90776e+06 5.90837e+06 5.90745e+06 5.90784e+06 5.90686e+06 5.90749e+06 5.9064e+06 5.90734e+06 5.90601e+06 5.90732e+06 5.90564e+06
          5.90731e+06 5.90533e+06 5.90718e+06 5.90506e+06 5.9066e+06 5.90441e+06 5.90595e+06 5.90374e+06 5.90532e+06 5.90315e+06 5.905e+06 5.90264e+06
          5.90253e+06 5.90133e+06 5.91551e+06 5.90741e+06 5.90917e+06 5.90745e+06 5.90676e+06 5.90633e+06 5.90601e+06 5.90541e+06 5.90491e+06 5.90447e+06
          5.90399e+06 5.9035e+06 5.90306e+06 5.90224e+06 5.90155e+06 5.90094e+06 5.90039e+06 5.89987e+06 5.89934e+06 5.91149e+06 5.90978e+06 5.91059e+06
          5.90888e+06 5.9091e+06 5.90819e+06 5.90867e+06 5.90776e+06 5.90837e+06 5.90745e+06 5.90784e+06 5.90686e+06 5.90749e+06 5.9064e+06 5.90734e+06
          5.90601e+06 5.90732e+06 5.90564e+06 5.90731e+06 5.90533e+06 5.90718e+06 5.90506e+06 5.9066e+06 5.90441e+06 5.90595e+06 5.90374e+06 5.90532e+06
          5.90315e+06 5.905e+06 5.90264e+06 5.90253e+06 5.90133e+06 5.91551e+06 5.90741e+06 5.90917e+06 5.90745e+06 5.90676e+06 5.90633e+06 5.90601e+06
          5.90541e+06 5.90491e+06 5.90447e+06 5.90399e+06 5.9035e+06 5.90306e+06 5.90224e+06 5.90155e+06 5.90094e+06 5.90039e+06 5.89987e+06 5.89934e+06
          5.91149e+06 5.90978e+06 5.91059e+06 5.90888e+06 5.9091e+06 5.90819e+06 5.90867e+06 5.90776e+06 5.90837e+06 5.90745e+06 5.90784e+06 5.90686e+06
          5.90749e+06 5.9064e+06 5.90734e+06 5.90601e+06 5.90732e+06 5.90564e+06 5.90731e+06 5.90533e+06 5.90718e+06 5.90506e+06 5.9066e+06 5.90441e+06
          5.90595e+06 5.90374e+06 5.90532e+06 5.90315e+06 5.905e+06 5.90264e+06 5.90253e+06 5.90133e+06 5.91551e+06 5.90741e+06 5.90917e+06 5.90745e+06
          5.90676e+06 5.90633e+06 5.90601e+06 5.90541e+06 5.90491e+06 5.90447e+06 5.90399e+06 5.9035e+06 5.90306e+06 5.90224e+06 5.90155e+06 5.90094e+06
          5.90039e+06 5.89987e+06 5.89934e+06 5.91149e+06 5.90978e+06 5.91059e+06 5.90888e+06 5.9091e+06 5.90819e+06 5.90867e+06 5.90776e+06 5.90837e+06
          5.90745e+06 5.90784e+06 5.90686e+06 5.90749e+06 5.9064e+06 5.90734e+06 5.90601e+06 5.90732e+06 5.90564e+06 5.90731e+06 5.90533e+06 5.90718e+06
          5.90506e+06 5.9066e+06 5.90441e+06 5.90595e+06 5.90374e+06 5.90532e+06 5.90315e+06 5.905e+06 5.90264e+06 5.90253e+06 5.90133e+06 5.91551e+06
          5.90741e+06 5.90917e+06 5.90745e+06 5.90676e+06 5.90633e+06 5.90601e+06 5.90541e+06 5.90491e+06 5.90447e+06 5.90399e+06 5.9035e+06 5.90306e+06
          5.90224e+06 5.90155e+06 5.90094e+06 5.90039e+06 5.89987e+06 5.89934e+06
        </DataArray>
        <DataArray type="Float32" Name="rho_liq" NumberOfComponents="1" format="ascii">
          1000 1000 1000 1000 1000 1000 1000 1000 1000 1000 1000 1000
          1000 1000 1000 1000 1000 1000 1000 1000 1000 1000 1000 1000
          1000 1000 1000 1000 1000 1000 1000 1000 1000 1000 1000 1000
          1000 1000 1000 1000 1000 1000 1000 1000 1000 1000 1000 1000
          1000 1000 1000 1000 1000 1000 1000 1000 1000 1000 1000 1000
          1000 1000 1000 1000 1000 1000 1000 1000 1000 1000 1000 1000
          1000 1000 1000 1000 1000 1000 1000 1000 1000 1000 1000 1000
          1000 1000 1000 1000 1000 1000 1000 1000 1000 1000 1000 1000
          1000 1000 1000 1000 1000 1000 1000 1000 1000 1000 1000 1000
          1000 1000 1000 1000 1000 1000 1000 1000 1000 1000 1000 1000
          1000 1000 1000 1000 1000 1000 1000 1000 1000 1000 1000 1000
          1000 1000 1000 1000 1000 1000 1000 1000 1000 1000 1000 1000
          1000 1000 1000 1000 1000 1000 1000 1000 1000 1000 1000 1000
          1000 1000 1000 1000 1000 1000 1000 1000 1000 1000 1000 1000
          1000 1000 1000 1000 1000 1000 1000 1000 1000 1000 1000 1000
          1000 1000 1000 1000 1000 1000 1000 1000 1000 1000 1000 1000
          1000 1000 1000 1000 1000 1000 1000 1000 1000 1000 1000 1000
          1000 1000 1000 1000 1000 1000 1000 1000 1000 1000 1000 1000
          1000 1000 1000 1000 1000 1000 1000 1000 1000 1000 1000 1000
          1000 1000 1000 1000 1000 1000 1000 1000 1000 1000 1000 1000
          1000 1000 1000 1000 1000 1000 1000 1000 1000 1000 1000 1000
          1000 1000 1000 1000 1000 1000 1000 1000 1000 1000 1000 1000
          1000 1000 1000 1000 1000 1000 1000 1000 1000 1000 1000 1000
          1000 1000 1000 1000 1000 1000 1000 1000 1000 1000 1000 1000
          1000 1000 1000 1000 1000 1000 1000 1000 1000 1000 1000 1000
          1000 1000 1000 1000 1000 1000
        </DataArray>
        <DataArray type="Float32" Name="mob_liq" NumberOfComponents="1" format="ascii">
          2.77553e-13 3.33483e-13 2.77553e-13 3.33483e-13 2.77553e-13 3.33483e-13 2.77553e-13 3.33483e-13 3.33483e-13 3.33483e-13 3.33483e-13 3.33483e-13
          3.33483e-13 3.33483e-13 3.33483e-13 3.33483e-13 3.33483e-13 3.33483e-13 3.33483e-13 3.33483e-13 3.33483e-13 3.33483e-13 3.33483e-13 3.33483e-13
          3.33483e-13 3.33483e-13 3.33483e-13 3.33483e-13 3.33483e-13 3.33483e-13 3.33483e-13 3.33483e-13 3.33483e-13 3.33483e-13 3.33483e-13 3.33483e-13
          3.33483e-13 3.33483e-13 3.33483e-13 3.33483e-13 3.33483e-13 3.33483e-13 3.33483e-13 3.33483e-13 3.33483e-13 3.33483e-13 3.33483e-13 3.33483e-13
          3.33483e-13 3.33483e-13 3.33483e-13 3.33483e-13 3.33483e-13 3.33483e-13 3.33483e-13 3.33483e-13 3.33483e-13 3.33483e-13 3.33483e-13 3.33483e-13
          3.33483e-13 3.33483e-13 3.33483e-13 3.33483e-13 3.33483e-13 3.33483e-13 3.33483e-13 3.33483e-13 2.77553e-13 3.33483e-13 2.77553e-13 3.33483e-13
          3.33483e-13 3.33483e-13 3.33483e-13 3.33483e-13 3.33483e-13 3.33483e-13 3.33483e-13 3.33483e-13 3.33483e-13 3.33483e-13 3.33483e-13 3.33483e-13
          3.33483e-13 3.33483e-13 3.33483e-13 3.33483e-13 3.33483e-13 3.33483e-13 3.33483e-13 3.33483e-13 3.33483e-13 3.33483e-13 3.33483e-13 3.33483e-13
[...]
      <CellData Scalars="process rank">
        <DataArray type="Float32" Name="process rank" NumberOfComponents="1" format="ascii">
          0 0 0 0 0 0 0 0 0 0 0 0
          0 0 0 0 0 0 0 0 0 0 0 0
          0 0 0 0 0 0 0 0 0 0 0 0
          0 0 0 0 0 0 0 0 0 0 0 0
          0 0 0 0 0 0 0 0 0 0 0 0
          0 0 0 0 0 0 0 0 0 0 0 0
          0 0 0 0 0 0 0 0 0 0 0 0
          0 0 0 0 0 0 0 0 0 0 0 0
          0 0 0 0 0 0 0 0 0 0 0 0
          0 0 0 0 0 0 0 0 0 0 0 0
          0 0 0 0 0 0 0 0 0 0 0 0
          0 0 0 0 0 0 0 0 0 0 0 0
          0 0 0 0 0 0 0 0 0 0 0 0
          0 0 0 0
        </DataArray>
      </CellData>
      <Points>
        <DataArray type="Float32" Name="Coordinates" NumberOfComponents="3" format="ascii">
          -0.2 1.11022e-16 0 -1.4 7.77156e-16 0 -0.190211 -0.0618034 0 -1.33148 -0.432624 0
          -0.2 1.13311e-16 5.5 -1.4 7.93175e-16 5.5 -0.190211 -0.0618034 5.5 -1.33148 -0.432624 5.5
          -2.6 1.44329e-15 0 -2.47275 -0.803444 0 -2.6 1.47304e-15 5.5 -2.47275 -0.803444 5.5
          -3.8 2.22045e-15 0 -3.61401 -1.17426 0 -3.8 2.1529e-15 5.5 -3.61401 -1.17426 5.5
          -5 2.88658e-15 0 -4.75528 -1.54508 0 -5 2.83277e-15 5.5 -4.75528 -1.54508 5.5
          -8.52774 4.88498e-15 0 -8.11037 -2.63522 0 -8.52774 4.83143e-15 5.5 -8.11037 -2.63522 5.5
          -13.1138 7.10543e-15 0 -12.472 -4.05239 0 -13.1138 7.42968e-15 5.5 -12.472 -4.05239 5.5
          -19.0757 1.06581e-14 0 -18.1421 -5.89471 0 -19.0757 1.08074e-14 5.5 -18.1421 -5.89471 5.5
          -26.8261 1.59872e-14 0 -25.5132 -8.28974 0 -26.8261 1.51985e-14 5.5 -25.5132 -8.28974 5.5
          -36.9017 2.13163e-14 0 -35.0956 -11.4033 0 -36.9017 2.09068e-14 5.5 -35.0956 -11.4033 5.5
          -50 2.84217e-14 0 -47.5528 -15.4508 0 -50 2.83277e-14 5.5 -47.5528 -15.4508 5.5
          -85.2774 4.9738e-14 0 -81.1037 -26.3522 0 -85.2774 4.83143e-14 5.5 -81.1037 -26.3522 5.5
          -131.138 7.10543e-14 0 -124.72 -40.5239 0 -131.138 7.42968e-14 5.5 -124.72 -40.5239 5.5
          -190.757 1.06581e-13 0 -181.421 -58.9471 0 -190.757 1.08074e-13 5.5 -181.421 -58.9471 5.5
          -268.261 1.56319e-13 0 -255.132 -82.8974 0 -268.261 1.51985e-13 5.5 -255.132 -82.8974 5.5
          -369.017 2.13163e-13 0 -350.956 -114.033 0 -369.017 2.09068e-13 5.5 -350.956 -114.033 5.5
          -500 2.84217e-13 0 -475.528 -154.508 0 -500 2.85157e-13 5.5 -475.528 -154.508 5.5
          -0.2 1.13311e-16 11 -1.4 7.93175e-16 11 -0.190211 -0.0618034 11 -1.33148 -0.432624 11
          -2.6 1.47304e-15 11 -2.47275 -0.803444 11 -3.8 2.1529e-15 11 -3.61401 -1.17426 11
          -5 2.83277e-15 11 -4.75528 -1.54508 11 -8.52774 4.83143e-15 11 -8.11037 -2.63522 11
          -13.1138 7.42968e-15 11 -12.472 -4.05239 11 -19.0757 1.08074e-14 11 -18.1421 -5.89471 11
          -26.8261 1.51985e-14 11 -25.5132 -8.28974 11 -36.9017 2.09068e-14 11 -35.0956 -11.4033 11
          -50 2.83277e-14 11 -47.5528 -15.4508 11 -85.2774 4.83143e-14 11 -81.1037 -26.3522 11
          -131.138 7.42968e-14 11 -124.72 -40.5239 11 -190.757 1.08074e-13 11 -181.421 -58.9471 11
          -268.261 1.51985e-13 11 -255.132 -82.8974 11 -369.017 2.09068e-13 11 -350.956 -114.033 11
          -500 2.85157e-13 11 -475.528 -154.508 11 -0.161803 -0.117557 0 -1.13262 -0.822899 0
          -0.161803 -0.117557 5.5 -1.13262 -0.822899 5.5 -2.10344 -1.52824 0 -2.10344 -1.52824 5.5
          -3.07426 -2.23358 0 -3.07426 -2.23358 5.5 -4.04508 -2.93893 0 -4.04508 -2.93893 5.5
          -6.89909 -5.01248 0 -6.89909 -5.01248 5.5 -10.6093 -7.7081 0 -10.6093 -7.7081 5.5
          -15.4326 -11.2124 0 -15.4326 -11.2124 5.5 -21.7028 -15.768 0 -21.7028 -15.768 5.5
          -29.8541 -21.6903 0 -29.8541 -21.6903 5.5 -40.4509 -29.3893 0 -40.4509 -29.3893 5.5
          -68.9909 -50.1248 0 -68.9909 -50.1248 5.5 -106.093 -77.081 0 -106.093 -77.081 5.5
          -154.326 -112.124 0 -154.326 -112.124 5.5 -217.028 -157.68 0 -217.028 -157.68 5.5
          -298.541 -216.903 0 -298.541 -216.903 5.5 -404.508 -293.893 0 -404.508 -293.893 5.5
          -0.161803 -0.117557 11 -1.13262 -0.822899 11 -2.10344 -1.52824 11 -3.07426 -2.23358 11
          -4.04508 -2.93893 11 -6.89909 -5.01248 11 -10.6093 -7.7081 11 -15.4326 -11.2124 11
          -21.7028 -15.768 11 -29.8541 -21.6903 11 -40.4509 -29.3893 11 -68.9909 -50.1248 11
          -106.093 -77.081 11 -154.326 -112.124 11 -217.028 -157.68 11 -298.541 -216.903 11
          -404.508 -293.893 11 -0.117557 -0.161803 0 -0.822899 -1.13262 0 -0.117557 -0.161803 5.5
          -0.822899 -1.13262 5.5 -1.52824 -2.10344 0 -1.52824 -2.10344 5.5 -2.23358 -3.07426 0
          -2.23358 -3.07426 5.5 -2.93893 -4.04508 0 -2.93893 -4.04508 5.5 -5.01248 -6.89909 0
          -5.01248 -6.89909 5.5 -7.7081 -10.6093 0 -7.7081 -10.6093 5.5 -11.2124 -15.4326 0
          -11.2124 -15.4326 5.5 -15.768 -21.7028 0 -15.768 -21.7028 5.5 -21.6903 -29.8541 0
          -21.6903 -29.8541 5.5 -29.3893 -40.4509 0 -29.3893 -40.4509 5.5 -50.1248 -68.9909 0
          -50.1248 -68.9909 5.5 -77.081 -106.093 0 -77.081 -106.093 5.5 -112.124 -154.326 0
          -112.124 -154.326 5.5 -157.68 -217.028 0 -157.68 -217.028 5.5 -216.903 -298.541 0
          -216.903 -298.541 5.5 -293.893 -404.508 0 -293.893 -404.508 5.5 -0.117557 -0.161803 11
          -0.822899 -1.13262 11 -1.52824 -2.10344 11 -2.23358 -3.07426 11 -2.93893 -4.04508 11
          -5.01248 -6.89909 11 -7.7081 -10.6093 11 -11.2124 -15.4326 11 -15.768 -21.7028 11
          -21.6903 -29.8541 11 -29.3893 -40.4509 11 -50.1248 -68.9909 11 -77.081 -106.093 11
          -112.124 -154.326 11 -157.68 -217.028 11 -216.903 -298.541 11 -293.893 -404.508 11
          -0.0618034 -0.190211 0 -0.432624 -1.33148 0 -0.0618034 -0.190211 5.5 -0.432624 -1.33148 5.5
          -0.803444 -2.47275 0 -0.803444 -2.47275 5.5 -1.17426 -3.61401 0 -1.17426 -3.61401 5.5
          -1.54508 -4.75528 0 -1.54508 -4.75528 5.5 -2.63522 -8.11037 0 -2.63522 -8.11037 5.5
          -4.05239 -12.472 0 -4.05239 -12.472 5.5 -5.89471 -18.1421 0 -5.89471 -18.1421 5.5
          -8.28974 -25.5132 0 -8.28974 -25.5132 5.5 -11.4033 -35.0956 0 -11.4033 -35.0956 5.5
          -15.4508 -47.5528 0 -15.4508 -47.5528 5.5 -26.3522 -81.1037 0 -26.3522 -81.1037 5.5
          -40.5239 -124.72 0 -40.5239 -124.72 5.5 -58.9471 -181.421 0 -58.9471 -181.421 5.5
          -82.8974 -255.132 0 -82.8974 -255.132 5.5 -114.033 -350.956 0 -114.033 -350.956 5.5
          -154.508 -475.528 0 -154.508 -475.528 5.5 -0.0618034 -0.190211 11 -0.432624 -1.33148 11
          -0.803444 -2.47275 11 -1.17426 -3.61401 11 -1.54508 -4.75528 11 -2.63522 -8.11037 11
          -4.05239 -12.472 11 -5.89471 -18.1421 11 -8.28974 -25.5132 11 -11.4033 -35.0956 11
          -15.4508 -47.5528 11 -26.3522 -81.1037 11 -40.5239 -124.72 11 -58.9471 -181.421 11
          -82.8974 -255.132 11 -114.033 -350.956 11 -154.508 -475.528 11 1.66533e-16 -0.2 0
          9.99201e-16 -1.4 0 1.40896e-16 -0.2 5.5 9.86274e-16 -1.4 5.5 1.77636e-15 -2.6 0
          1.83165e-15 -2.6 5.5 2.66454e-15 -3.8 0 2.67703e-15 -3.8 5.5 3.55271e-15 -5 0
          3.52241e-15 -5 5.5 6.21725e-15 -8.52774 0 6.00764e-15 -8.52774 5.5 8.88178e-15 -13.1138 0
          9.23844e-15 -13.1138 5.5 1.33227e-14 -19.0757 0 1.34385e-14 -19.0757 5.5 1.95399e-14 -26.8261 0
          1.88985e-14 -26.8261 5.5 2.66454e-14 -36.9017 0 2.59966e-14 -36.9017 5.5 3.55271e-14 -50 0
          3.52241e-14 -50 5.5 6.03961e-14 -85.2774 0 6.00764e-14 -85.2774 5.5 9.23706e-14 -131.138 0
          9.23844e-14 -131.138 5.5 1.35003e-13 -190.757 0 1.34385e-13 -190.757 5.5 1.84741e-13 -268.261 0
          1.88985e-13 -268.261 5.5 2.55795e-13 -369.017 0 2.59966e-13 -369.017 5.5 3.41061e-13 -500 0
          3.2988e-13 -500 5.5 1.40896e-16 -0.2 11 9.86274e-16 -1.4 11 1.83165e-15 -2.6 11
          2.67703e-15 -3.8 11 3.52241e-15 -5 11 6.00764e-15 -8.52774 11 9.23844e-15 -13.1138 11
          1.34385e-14 -19.0757 11 1.88985e-14 -26.8261 11 2.59966e-14 -36.9017 11 3.52241e-14 -50 11
          6.00764e-14 -85.2774 11 9.23844e-14 -131.138 11 1.34385e-13 -190.757 11 1.88985e-13 -268.261 11
          2.59966e-13 -369.017 11 3.2988e-13 -500 11
        </DataArray>
      </Points>
      <Cells>
        <DataArray type="Int32" Name="connectivity" NumberOfComponents="1" format="ascii">
          0 1 3 2 4 5 7 6 1 8 9 3
          5 10 11 7 8 12 13 9 10 14 15 11
          12 16 17 13 14 18 19 15 16 20 21 17
          18 22 23 19 20 24 25 21 22 26 27 23
          24 28 29 25 26 30 31 27 28 32 33 29
          30 34 35 31 32 36 37 33 34 38 39 35
          36 40 41 37 38 42 43 39 40 44 45 41
          42 46 47 43 44 48 49 45 46 50 51 47
          48 52 53 49 50 54 55 51 52 56 57 53
          54 58 59 55 56 60 61 57 58 62 63 59
          60 64 65 61 62 66 67 63 4 5 7 6
          68 69 71 70 5 10 11 7 69 72 73 71
          10 14 15 11 72 74 75 73 14 18 19 15
          74 76 77 75 18 22 23 19 76 78 79 77
          22 26 27 23 78 80 81 79 26 30 31 27
          80 82 83 81 30 34 35 31 82 84 85 83
          34 38 39 35 84 86 87 85 38 42 43 39
          86 88 89 87 42 46 47 43 88 90 91 89
          46 50 51 47 90 92 93 91 50 54 55 51
          92 94 95 93 54 58 59 55 94 96 97 95
          58 62 63 59 96 98 99 97 62 66 67 63
          98 100 101 99 2 3 103 102 6 7 105 104
          3 9 106 103 7 11 107 105 9 13 108 106
          11 15 109 107 13 17 110 108 15 19 111 109
          17 21 112 110 19 23 113 111 21 25 114 112
          23 27 115 113 25 29 116 114 27 31 117 115
          29 33 118 116 31 35 119 117 33 37 120 118
          35 39 121 119 37 41 122 120 39 43 123 121
          41 45 124 122 43 47 125 123 45 49 126 124
          47 51 127 125 49 53 128 126 51 55 129 127
          53 57 130 128 55 59 131 129 57 61 132 130
          59 63 133 131 61 65 134 132 63 67 135 133
          6 7 105 104 70 71 137 136 7 11 107 105
          71 73 138 137 11 15 109 107 73 75 139 138
          15 19 111 109 75 77 140 139 19 23 113 111
          77 79 141 140 23 27 115 113 79 81 142 141
          27 31 117 115 81 83 143 142 31 35 119 117
          83 85 144 143 35 39 121 119 85 87 145 144
          39 43 123 121 87 89 146 145 43 47 125 123
          89 91 147 146 47 51 127 125 91 93 148 147
          51 55 129 127 93 95 149 148 55 59 131 129
          95 97 150 149 59 63 133 131 97 99 151 150
          63 67 135 133 99 101 152 151 102 103 154 153
          104 105 156 155 103 106 157 154 105 107 158 156
          106 108 159 157 107 109 160 158 108 110 161 159
          109 111 162 160 110 112 163 161 111 113 164 162
          112 114 165 163 113 115 166 164 114 116 167 165
          115 117 168 166 116 118 169 167 117 119 170 168
          118 120 171 169 119 121 172 170 120 122 173 171
          121 123 174 172 122 124 175 173 123 125 176 174
          124 126 177 175 125 127 178 176 126 128 179 177
          127 129 180 178 128 130 181 179 129 131 182 180
          130 132 183 181 131 133 184 182 132 134 185 183
          133 135 186 184 104 105 156 155 136 137 188 187
          105 107 158 156 137 138 189 188 107 109 160 158
          138 139 190 189 109 111 162 160 139 140 191 190
          111 113 164 162 140 141 192 191 113 115 166 164
          141 142 193 192 115 117 168 166 142 143 194 193
          117 119 170 168 143 144 195 194 119 121 172 170
          144 145 196 195 121 123 174 172 145 146 197 196
          123 125 176 174 146 147 198 197 125 127 178 176
          147 148 199 198 127 129 180 178 148 149 200 199
          129 131 182 180 149 150 201 200 131 133 184 182
          150 151 202 201 133 135 186 184 151 152 203 202
          153 154 205 204 155 156 207 206 154 157 208 205
          156 158 209 207 157 159 210 208 158 160 211 209
          159 161 212 210 160 162 213 211 161 163 214 212
          162 164 215 213 163 165 216 214 164 166 217 215
          165 167 218 216 166 168 219 217 167 169 220 218
          168 170 221 219 169 171 222 220 170 172 223 221
          171 173 224 222 172 174 225 223 173 175 226 224
          174 176 227 225 175 177 228 226 176 178 229 227
          177 179 230 228 178 180 231 229 179 181 232 230
          180 182 233 231 181 183 234 232 182 184 235 233
          183 185 236 234 184 186 237 235 155 156 207 206
          187 188 239 238 156 158 209 207 188 189 240 239
          158 160 211 209 189 190 241 240 160 162 213 211
          190 191 242 241 162 164 215 213 191 192 243 242
          164 166 217 215 192 193 244 243 166 168 219 217
          193 194 245 244 168 170 221 219 194 195 246 245
          170 172 223 221 195 196 247 246 172 174 225 223
          196 197 248 247 174 176 227 225 197 198 249 248
          176 178 229 227 198 199 250 249 178 180 231 229
          199 200 251 250 180 182 233 231 200 201 252 251
          182 184 235 233 201 202 253 252 184 186 237 235
          202 203 254 253 204 205 256 255 206 207 258 257
          205 208 259 256 207 209 260 258 208 210 261 259
          209 211 262 260 210 212 263 261 211 213 264 262
          212 214 265 263 213 215 266 264 214 216 267 265
          215 217 268 266 216 218 269 267 217 219 270 268
          218 220 271 269 219 221 272 270 220 222 273 271
          221 223 274 272 222 224 275 273 223 225 276 274
          224 226 277 275 225 227 278 276 226 228 279 277
          227 229 280 278 228 230 281 279 229 231 282 280
          230 232 283 281 231 233 284 282 232 234 285 283
          233 235 286 284 234 236 287 285 235 237 288 286
          206 207 258 257 238 239 290 289 207 209 260 258
          239 240 291 290 209 211 262 260 240 241 292 291
          211 213 264 262 241 242 293 292 213 215 266 264
          242 243 294 293 215 217 268 266 243 244 295 294
          217 219 270 268 244 245 296 295 219 221 272 270
          245 246 297 296 221 223 274 272 246 247 298 297
          223 225 276 274 247 248 299 298 225 227 278 276
          248 249 300 299 227 229 280 278 249 250 301 300
          229 231 282 280 250 251 302 301 231 233 284 282
          251 252 303 302 233 235 286 284 252 253 304 303
          235 237 288 286 253 254 305 304
        </DataArray>
        <DataArray type="Int32" Name="offsets" NumberOfComponents="1" format="ascii">
          8 16 24 32 40 48 56 64 72 80 88 96
          104 112 120 128 136 144 152 160 168 176 184 192
          200 208 216 224 232 240 248 256 264 272 280 288
          296 304 312 320 328 336 344 352 360 368 376 384
          392 400 408 416 424 432 440 448 456 464 472 480
          488 496 504 512 520 528 536 544 552 560 568 576
          584 592 600 608 616 624 632 640 648 656 664 672
          680 688 696 704 712 720 728 736 744 752 760 768
          776 784 792 800 808 816 824 832 840 848 856 864
          872 880 888 896 904 912 920 928 936 944 952 960
          968 976 984 992 1000 1008 1016 1024 1032 1040 1048 1056
          1064 1072 1080 1088 1096 1104 1112 1120 1128 1136 1144 1152
          1160 1168 1176 1184 1192 1200 1208 1216 1224 1232 1240 1248
          1256 1264 1272 1280
        </DataArray>
        <DataArray type="UInt8" Name="types" NumberOfComponents="1" format="ascii">
          12 12 12 12 12 12 12 12 12 12 12 12
          12 12 12 12 12 12 12 12 12 12 12 12
          12 12 12 12 12 12 12 12 12 12 12 12
          12 12 12 12 12 12 12 12 12 12 12 12
          12 12 12 12 12 12 12 12 12 12 12 12
          12 12 12 12 12 12 12 12 12 12 12 12
          12 12 12 12 12 12 12 12 12 12 12 12
          12 12 12 12 12 12 12 12 12 12 12 12
          12 12 12 12 12 12 12 12 12 12 12 12
          12 12 12 12 12 12 12 12 12 12 12 12
          12 12 12 12 12 12 12 12 12 12 12 12
          12 12 12 12 12 12 12 12 12 12 12 12
          12 12 12 12 12 12 12 12 12 12 12 12
          12 12 12 12
        </DataArray>
      </Cells>
    </Piece>
  </UnstructuredGrid>
</VTKFile>
